<?xml version="1.0"?>
<VTKFile type="UnstructuredGrid"  version="0.1"  >
<UnstructuredGrid>
<Piece  NumberOfPoints="2446" NumberOfCells="4585">
<Points>
<DataArray  type="Float64"  NumberOfComponents="3"  format="ascii">0 0.41 0  0 0 0  2.2 0 0  2.2 0.41 0  0.2404508497187474 0.2293892626146237 0  0.25 0.2 0  0.2404508497187474 0.1706107373853764 0  0.2154508497187474 0.1524471741852423 0  0.1845491502812526 0.1524471741852423 0  0.1595491502812526 0.1706107373853764 0  0.15 0.2 0  0.1595491502812526 0.2293892626146237 0  0.1845491502812527 0.2475528258147577 0  0.2154508497187474 0.2475528258147577 0  1.1 0 0  1.1 0.41 0  0 0.205 0  0.55 0 0  0.55 0.41 0  0.275 0 0  0.275 0.41 0  1.65 0.41 0  1.65 0 0  0.8250000000000001 0.41 0  0.8250000000000001 0 0  1.375 0 0  1.375 0.41 0  1.925 0 0  1.925 0.41 0  1.5125 0.205 0  1.7875 0.205 0  0.6875 0.205 0  0.9625000000000001 0.205 0  1.2375 0.205 0  2.2 0.205 0  0.4687002074688797 0.2068568464730291 0  1.99375 0.2152743902439024 0  2.0625 0 0  2.0625 0.41 0  2.2 0.3075 0  0.4125 0 0  0.4125 0.41 0  1.7875 0.41 0  1.375 0.1486128048780488 0  1.5125 0 0  1.7875 0 0  1.5125 0.41 0  0.8250000000000001 0.2613871951219511 0  0.9625000000000001 0.41 0  0.9625000000000001 0 0  0.6875 0.41 0  0.6875 0 0  0.1375 0 0  0.1375 0.41 0  1.2375 0 0  1.1 0.1486128048780487 0  1.2375 0.41 0  1.65 0.1486128048780487 0  1.126715909090909 0.2793064024390244 0  1.676715909090909 0.2793064024390244 0  0.8517159090909092 0.1306935975609756 0  1.348284090909091 0.2793064024390244 0  0.34375 0.3032389320646208 0  1.894702181800738 0.1282910975492754 0  2.092797818199262 0.1282910975492754 0  1.85625 0.3075 0  0.61875 0.3075 0  0.61875 0.1025 0  0.3648540804333487 0.1240075933101478 0  0 0.3075 0  0 0.1025 0  2.099172119769978 0.25625 0  0.48125 0.09238439620688085 0  0.5781001037344399 0.2059284232365146 0  0.48125 0.3196743479159776 0  0.7265881057911006 0.3055240343720796 0  1.99375 0.08395950269330846 0  1.459960956013612 0.3075 0  1.569025960719943 0.2986889805672169 0  0.75625 0.08213100772579164 0  1.03125 0.3278689922742084 0  0.923871252904788 0.3078247185783941 0  1.959375 0.3126371951219512 0  1.749222215368287 0.1025 0  1.275777784631713 0.1025 0  2.2 0.1025 0  1.225938124459196 0.3075 0  1.550777784631713 0.1025 0  1.000777784631713 0.1025 0  1.44375 0.07430640243902442 0  1.16875 0.07430640243902437 0  1.899250267340833 0.2229966846119207 0  0.1020898364287272 0.3140258291809757 0  1.766482954545455 0.2934032012195123 0  0.3405058858996321 0.2119987970531874 0  0.7710785630958338 0.1710968191298857 0  1.046078563095834 0.2389031808701144 0  0.2 0.3400647632937836 0  1.421109702350723 0.2261157654379721 0  0.2800464974185557 0.08982544815605742 0  0.098916018031319 0.09171660955420841 0  2.13125 0 0  2.118919042110979 0.3422084711244843 0  1.30625 0.41 0  0.89375 0 0  1.597888256393107 0.2173787389261347 0  0.20625 0 0  1.829299675393195 0.07400700849299596 0  1.71875 0.41 0  1.16875 0.41 0  2.038220665644273 0.332420740103091 0  0.34375 0 0  0.417496017710808 0.2696595573092803 0  0.2 0.07687845740457822 0  0.9295982307099278 0.1343158415898188 0  0.07390688010811153 0.1697064032433452 0  0.5238366813727013 0.2578302467013575 0  0.05452951551825875 0.25625 0  0.5229630068078351 0.1548816096928243 0  1.452769549894695 0.1548122580621249 0  1.369219062229598 0.07430640243902442 0  1.30625 0 0  0.8504409521244898 0.3356935975609756 0  0.8821881244591965 0.205 0  1.720943423819132 0.1714577452753128 0  1.157188124459196 0.205 0  1.094219062229598 0.07430640243902437 0  1.03125 0 0  1.304056576180868 0.1714577452753128 0  1.67579304192913 0.07430640243902437 0  0.2751941921308361 0.3346083473122598 0  1.209670467133757 0.1362100266964769 0  1.025335513626278 0.1700681449722324 0  0.7562500000000001 0.41 0  1.58125 0 0  0.7567170593862014 0.2409196493502535 0  0.6926714215682891 0.1272249611432207 0  0.4139715849905988 0.3397932387114203 0  0.9840787304190477 0.2717749043358119 0  0.06875000000000001 0.41 0  0 0.35875 0  0.9281250000000001 0.06276726142697993 0  0.5507396469029935 0.3219409231578227 0  0.5504468037989405 0.09136885600634273 0  1.58125 0.41 0  1.631724228912893 0.3381867502687533 0  1.825608881788174 0.14499488549201 0  1.85625 0 0  1.44375 0 0  1.44375 0.41 0  1.85625 0.41 0  2.13125 0.41 0  0.7562500000000001 0 0  0.89375 0.41 0  0.4812500000000001 0 0  0.34375 0.41 0  0.4812500000000001 0.41 0  0.20625 0.41 0  0.06875000000000001 0 0  1.16875 0 0  0.61875 0 0  0.61875 0.41 0  1.03125 0.41 0  1.71875 0 0  1.99375 0 0  1.99375 0.41 0  1.340625 0.3489494290853124 0  1.134375 0.3489494290853123 0  1.700180620188976 0.3438659752031281 0  2.135782184673599 0.07126652247502523 0  1.668441847249787 0.2129203728327609 0  1.295782514339747 0.2378437748815763 0  0.8233075729931248 0.06842334294821524 0  1.409375 0.3520314716057996 0  0.403505597322782 0.182067236678212 0  0.378125 0.05794951541303489 0  0.3043468223249023 0.1518321115979534 0  2.129248544730567 0.1906135162504124 0  2.060771381434487 0.1989445750470348 0  2.013252586573865 0.1496169464686054 0  1.942766402200229 0.1734448904596831 0  1.895522487186454 0.06076163953489683 0  2.069553871656643 0.06605731020975725 0  1.274680914880868 0.3520219391081363 0  1.614713220494657 0.09473434380863296 0  0.7899021319497519 0.3149123934144827 0  0.69518737419149 0.0634051089053758 0  0.2971740475496061 0.2592172353407536 0  1.72990325744076 0.2380068107952482 0  1.356580098625191 0.2120393231351682 0  2.034370752044885 0.2668681600792073 0  1.51768709249349 0.3426260931494756 0  1.561883724969884 0.1650446847858835 0  1.197344062229598 0.2523725417393646 0  1.804085235518364 0.3468178408964637 0  1.817887819205233 0.2589243285818559 0  1.905897727272727 0.3485060975609756 0  0.6719798073392919 0.2688965171178177 0  0 0.05125 0  0.653125 0.35875 0  0.6396896119294488 0.1627615407790282 0  0.4274150154087412 0.1242548552168279 0  1.192836486056382 0.3562350748565544 0  0.8279124365364005 0.183856489168822 0  1.097485222388854 0.2083571153401724 0  1.28257088594801 0.2944411014911587 0  1.474860187679412 0.2504218616229368 0  1.406767003493824 0.2829282258560709 0  0.446875 0.04619219810344041 0  0.515625 0.04585361801037557 0  0.592043440706648 0.05125 0  1.845656689180403 0.1998310418452388 0  2.144958525570388 0.2909790873294231 0  0.6171090763650112 0.2492366900333857 0  2.2 0.15375 0  0.5145586920831158 0.3648371739579888 0  1.57794966442982 0.3540357145964566 0  0.721875 0.3633107922168974 0  0.0496154796471391 0.333125 0  0.5843750000000001 0.3662560860076676 0  0.5810878747760798 0.1474002776121195 0  1.508991196088596 0.1421783375065625 0  0.8840670607017558 0.2640994375393898 0  0.09776612425612034 0.2204896805326566 0  1.50436820029908 0.06143401634903343 0  1.223857000523521 0.0823554862453532 0  1.153316824384777 0.1289850171317837 0  2.148922302309752 0.1258841779285271 0  0.309375 0.04312325590431198 0  1.621993280276081 0.2841214267927899 0  1.550118654119087 0.2461998729100966 0  1.327182649291491 0.1216967252533594 0  1.051977450479407 0.1221382572915816 0  1.753125 0.04556020050186112 0  1.271875 0.04556020050186116 0  0.9816084133102366 0.05126138213476004 0  1.039051841454368 0.0572224914831029 0  0.9719230514536006 0.3480477870845102 0  1.94956388244759 0.1180512551534177 0  1.949997712993411 0.04965831614304109 0  1.771961817615021 0.1530278789497521 0  1.909246823951428 0.2812757146784527 0  0.2459536687882397 0.04668633953831142 0  1.948575539857022 0.2445328248721197 0  1.697271520964565 0.1233917627620729 0  0.7964897648514618 0.1211426571931604 0  1.065625 0.3689344961371042 0  1.085849084308977 0.3170853572226867 0  0.4702981435440001 0.260434880697798 0  1.577403511714593 0.05463601888079143 0  0.05622663515370135 0.05493816910862376 0  0.3267207591099919 0.3566194660323104 0  0.9003051618565143 0.3564049499960621 0  1.751571320346033 0.3651102912045228 0  0.1583785085108421 0.2994699345738728 0  0.1455283439499995 0.3542795598723423 0  2.2 0.35875 0  0.2347662494194072 0.298325008655211 0  0.1527284455616188 0.1065771775690181 0  0.1382139529076665 0.05427454456341477 0  0.8749341636311069 0.05110114999892954 0  0.643661668713109 0.05693499781019222 0  1.466879772203159 0.3611261772912453 0  1.990280163552011 0.3564754268533217 0  1.17471064520912 0.2990917256188288 0  0.5202693090594349 0.206382495511728 0  0 0.25625 0  2.2 0.25625 0  2.2 0.05125 0  0 0.15375 0  1.853978576207987 0.35875 0  0.9787513713939683 0.1487523696999336 0  0.240625 0.3722153812029779 0  1.515638456102889 0.2882700110184686 0  0.09048297387599738 0.3637717362208066 0  2.150453692751374 0.2387066338105111 0  1.323782677156475 0.04897634338873398 0  0.8074131292871642 0.3624701995505916 0  1.409375 0.03715320121951221 0  1.406484531114799 0.1087852750766809 0  1.134375 0.03715320121951218 0  1.627401732573545 0.04552157221025036 0  0.1170173172005315 0.1427610859166811 0  2.045405893604797 0.1105340662939892 0  1.255408269734577 0.1577307500159216 0  2.028125 0.03707597992059326 0  0.4743610090857199 0.1421513964721819 0  0.9354010469015898 0.250631300585664 0  0.04420832937638274 0.128125 0  0.8922386349349938 0.0992956419364831 0  0.1197849154434487 0.2663398672460083 0  1.248258025468107 0.2565907092181813 0  0.3746885856929528 0.370723531618974 0  1.203125 0.0366132337404304 0  0.5724622277005015 0.2751253816079333 0  0.3365425205162783 0.08395777655057959 0  2.072662025974815 0.2975086504196739 0  0.4581080832182547 0.3648371739579888 0  0.3874522734668214 0.2295447548840689 0  0.7827853612484443 0.04106550386289586 0  1.887722846421017 0.1760882698830035 0  1.472640588990488 0.1118278026240017 0  1.865937103925594 0.2604137786483804 0  1.463913572748262 0.2030442564990043 0  1.376426316059077 0.3186741374914345 0  0.6641993820150034 0.3141688596240831 0  0.2943117490824315 0.2130987422685822 0  0.3478153998082709 0.1666571081082676 0  0.3427990510599805 0.2575950027870776 0  0.7997118993855807 0.2216171933356366 0  
[...]
<PointData  Scalars="f_10-0"> 
<DataArray  type="Float64"  Name="f_10-0"  format="ascii">1.4723860753277699e-04  9.9351504635800504e-04  2.2537374525560491e-03  9.8140058796558128e-04  1.0378863356844824e-03  1.7611330225873190e-03  2.3072429043128066e-03  2.4507834788316963e-03  1.7729836191030257e-03  9.2334415294282809e-04  5.2759041924358482e-04  4.1406858473904339e-04  3.6640016714838440e-04  4.4682116081687389e-04  3.9307562535124763e-03  4.7487625685962601e-04  3.7790349189795067e-04  4.8237838640914970e-03  1.9059586645222781e-04  5.3377863540319129e-03  1.6717605403750976e-04  8.4482451084169879e-04  3.1299401237891802e-03  2.8696229679809590e-04  4.3641069873304903e-03  3.5255274113837809e-03  6.7515064267105191e-04  2.7003329402775873e-03  9.5394966673190682e-04  2.0611433693630407e-03  1.9954036145230238e-03  2.1025023353428841e-03  2.1057479044727062e-03  2.0976637076515581e-03  1.7986319965071183e-03  1.6759165971842120e-03  1.8374104817645877e-03  2.4628011999653075e-03  9.7906783692867493e-04  1.2214349072904589e-03  5.1293783908232804e-03  1.7754953534454820e-04  9.0833966008986025e-04  2.7673016848904796e-03  3.3295923521026532e-03  2.9216193580435309e-03  7.6578266180063275e-04  1.0907153474794232e-03  3.7489061778524062e-04  4.1455540621201407e-03  2.2337495113927539e-04  4.5843838577042158e-03  3.8099199230624166e-03  1.5338461322895081e-04  3.7237219286174370e-03  2.9603967274173040e-03  5.7818761685781393e-04  2.5810048579041327e-03  1.1103892825363930e-03  1.3449937683858919e-03  3.4849138421901927e-03  1.2280504306054628e-03  3.5682972254194936e-04  2.5231453714721253e-03  2.3076771399021326e-03  1.2002906984285560e-03  3.3831212565382850e-04  4.3727314862720594e-03  3.3960732913640990e-03  2.0404044059516395e-04  6.5056219906175355e-04  1.5186441361387537e-03  4.5348429978607861e-03  2.1060907557372997e-03  2.6971208201005578e-04  4.9375654189536726e-04  2.5863559970074677e-03  1.0484222014512210e-03  1.1603369402931965e-03  4.2334684097007427e-03  6.2361770882622745e-04  6.8167281384219115e-04  1.1946183467563820e-03  2.8217874817845572e-03  3.3213642094590554e-03  2.2647064626614799e-03  9.1338181113846033e-04  3.0318482702948869e-03  3.6515975690659349e-03  3.3188089284160375e-03  3.6665519432638382e-03  1.8086852680729102e-03  2.0871560155590269e-04  1.2648940148923006e-03  1.5229356802442364e-03  2.8556862478250197e-03  1.5800139282462374e-03  2.0482235157189102e-04  1.8242140742133778e-03  4.4600532903475406e-03  5.2339639147669908e-03  2.3381379178330896e-03  1.0895438588210092e-03  6.2785038373937101e-04  4.2550222598345122e-03  1.9147583905885319e-03  5.0651361929269119e-03  2.8336724923507415e-03  8.7935344898317012e-04  5.2676406082877831e-04  1.1187062023974932e-03  5.2784620401177861e-03  5.7374224917572738e-04  5.8590635187383980e-03  3.3286444116408325e-03  4.9566162030192853e-04  5.8221295024295477e-04  2.7889459425647190e-04  3.6056372942964801e-03  2.6491453238865767e-03  3.4092629301120431e-03  3.6252931131227676e-03  4.3773346062177953e-04  2.1006657861350995e-03  2.3297606201433032e-03  2.1033451301006676e-03  3.7658433352907822e-03  4.0364497476053180e-03  2.5306426007471738e-03  3.0327799593383468e-03  2.2782359595381287e-04  3.0362194626801361e-03  2.6819920556070639e-03  2.5069561687614977e-04  3.2302528938650465e-03  1.3339642672011984e-03  3.8652684402858558e-03  2.2887401476931498e-04  1.0969957438281006e-03  1.4842045539112194e-04  1.6148862555110486e-04  4.0805606372344210e-03  2.6530563117570699e-04  4.5676191307180668e-03  8.0687499673292695e-04  9.6483473383364579e-04  2.4769476663454347e-03  2.8119928344314728e-03  3.4280044147228521e-03  7.2225387704223404e-04  9.3532840510678712e-04  9.8186458302072267e-04  4.4742703283933523e-03  3.2721023624901116e-04  4.9732253056819688e-03  1.7290408068640090e-04  1.8240362299948133e-04  1.5953869811652927e-04  1.6884539463387471e-03  3.8257458381351951e-03  4.6975407151824767e-03  2.0369907047697062e-04  4.2278642790833450e-04  3.0269332722790893e-03  2.5809110442276376e-03  9.7086128936753975e-04  7.4493442602333113e-04  5.9910229583280585e-04  9.7343728956236818e-04  2.3906396337109023e-03  1.9499766891213938e-03  1.6684724093887250e-03  4.2168552277110308e-03  7.8229937391540360e-04  2.1903740208860790e-03  4.9736964007100629e-03  2.5356044797498053e-03  1.9305746191787872e-03  1.9218601770689993e-03  2.2812043054086860e-03  2.1783904449394621e-03  2.7649886128953988e-03  2.4992404185911524e-03  6.9029084786167267e-04  3.0117349426219109e-03  5.0067864673682887e-04  4.4666439518337838e-03  8.2707143274808278e-04  1.7045250380703595e-03  1.9955465356923251e-03  1.4619847688146414e-03  8.8357083071003513e-04  2.4779510119549725e-03  1.4602714137325467e-03  1.0065372991135489e-03  1.5256111481964192e-03  1.0361739377222870e-03  7.2249708086576342e-04  8.3940773715786168e-04  2.3883121552188151e-04  3.3840439341504690e-03  3.7105739750718705e-03  6.1536855648281505e-04  2.5310442155146570e-03  2.0532766810839251e-03  1.0545037769155432e-03  1.5600008006706766e-03  1.2204547359089800e-03  4.9870913500175557e-03  4.8649262368122004e-03  4.7140054539744607e-03  2.0201838446339687e-03  1.3081015307607122e-03  8.9769379470693543e-04  2.0805119853231670e-03  2.0058100806825193e-04  8.7611352251458529e-04  2.6554439777479015e-04  1.8136282263618548e-04  2.1076628659173868e-04  3.8265433997032197e-03  2.7417015885340254e-03  1.1181232240433598e-03  3.5653087832117824e-04  3.2903488442591992e-03  3.5423063570126593e-03  3.1733637136021945e-03  2.2497796788709615e-03  5.2826680643891797e-03  1.2906677253402105e-03  1.6160000686391460e-03  3.0922559283306870e-03  3.3614240446567883e-03  2.9885302054731395e-03  3.6463407598218865e-03  4.0546983822763102e-03  3.9396230084566553e-03  4.7810220188603762e-04  2.5197989673724137e-03  2.6922625339638683e-03  2.4572540334298139e-03  1.3698782420469701e-03  5.5042315801741779e-03  1.6301224032724620e-03  2.7438326918188343e-03  3.7150618719324320e-03  4.8471187061804914e-04  7.4135546559295858e-04  5.6756841659300159e-04  3.2122040814752330e-03  1.4616788951122141e-03  2.0003354323349550e-04  3.9324673924470341e-04  9.3374240163933376e-04  2.5506348701953379e-04  1.7712903527485402e-04  1.0426175830339022e-03  2.9274999637109378e-04  5.8185498202582096e-03  5.8508984683228460e-03  4.2234902044065575e-03  4.5985057713559471e-03  7.8950877896315338e-04  1.0332710904674936e-03  9.4749306160479948e-04  1.9226553440360365e-03  2.7474767406723957e-04  1.4903196136370825e-03  2.2998304825163555e-03  5.1597585336905468e-04  9.9085443795150037e-04  3.0571625733630679e-03  1.7693429417656371e-04  1.2207173890868915e-03  1.6300050131805554e-04  1.6125962406568302e-03  3.5666390455641101e-03  3.1589346163592760e-04  3.4683412854516998e-03  3.1341636803575656e-03  3.8613238064001253e-03  3.1611606798186268e-03  2.9568092939982788e-03  2.4389249481538383e-03  2.7334309345142705e-03  2.5584366293071228e-03  3.6263441398793985e-03  1.3486302281819000e-03  7.5956901129467535e-04  3.8411709663688392e-03  2.8627288384674537e-04  1.4295434067597263e-03  1.8806441988247825e-04  3.7588331884253379e-03  4.6883335924047996e-04  4.5084564714258533e-03  1.2796997902342242e-03  1.9671382547100194e-04  1.1145114640928140e-03  4.4008883272178478e-03  2.1946977282770500e-03  3.0435179840760098e-03  1.5151906489687418e-03  2.0922233231732931e-03  9.2532716646572455e-04  3.5754341226584580e-04  1.5905172765213478e-03  2.3165550751944944e-03  8.6628424032135596e-04  1.7484493909110245e-03  1.3274452893072539e-03  1.6137014844187264e-03  2.4283019119635597e-03  3.0101997352678734e-03  3.7703849959768625e-03  1.7070680769265322e-03  1.0144924345196788e-03  1.3997472409812560e-03  2.2774466176811760e-03  2.9781179483863796e-03  9.7547432022669839e-04  2.6826928593557111e-03  2.0033812254757590e-03  1.1948686186246892e-03  1.2147362710686139e-03  3.6838423364033432e-04  1.5147181106413324e-03  1.1240347965823900e-03  9.8144638580348852e-04  1.0292891240466905e-03  3.0673574542634629e-03  4.4783624002099212e-03  8.2635733791619503e-04  2.7154510447069857e-03  1.2567014379668683e-03  4.6096824137612661e-03  1.5831302272531519e-03  2.4412246298480163e-03  3.3792354223523991e-03  2.2040929335090916e-03  7.8733685674144832e-04  3.0575236282494653e-04  3.0785544818264852e-03  3.0511128105548940e-03  3.9921516323476947e-04  4.4494090792958634e-04  2.3296108432426577e-03  1.0089680189318093e-03  1.4727679772605763e-04  4.3272009173268523e-03  2.8206552180574604e-04  2.5480050379114152e-03  2.9295651128422753e-03  1.6675802641392414e-03  2.9231904709756764e-03  2.7213920191031336e-03  3.2805122267265969e-03  9.9530020942001731e-04  1.2886300842434245e-03  3.6924679267929493e-03  9.2158516337478358e-04  3.9503189186644479e-03  1.0827344530644110e-03  8.8685651404182635e-04  3.8488313976314152e-03  4.6258595345437083e-03  1.5656305268398247e-04  2.2233632430701139e-03  3.5166531461410465e-04  2.0510069922911080e-03  6.1376450977027291e-04  2.0893365325607796e-03  3.3869304677339824e-03  5.3877444208777934e-03  2.5489050654878644e-03  2.7080678045388632e-03  1.5085026889401240e-03  8.8124913830772678e-04  3.5829435335268711e-04  3.2384673880621692e-04  2.1677110099291015e-03  3.5746404497399237e-03  1.5300439262285553e-03  1.6387706283574077e-03  2.6585444167324980e-03  5.7107862034238394e-04  2.0547256099128410e-03  9.4060071114822374e-04  2.6287842703053566e-03  7.3832683016586051e-04  9.4526746927471432e-04  2.8343754055906224e-03  2.7573933126210787e-03  2.6782630775559237e-03  3.0883171882677184e-03  2.9382444122477910e-03  3.1140242556544008e-03  2.8892169078503006e-03  1.1282009063482024e-03  5.5553085458523107e-04  3.3360148552552099e-04  1.5603362493151675e-04  1.0088928571948506e-03  2.7555739786336835e-03  3.1818866784127891e-03  7.0142275350991792e-04  2.2312133344230443e-04  4.8065279726143637e-03  2.7172756029040238e-04  2.8933299649941849e-03  4.1882521576972233e-03  3.8711064609942453e-04  2.8566918074941799e-04  2.4091180596950163e-03  4.7034121795004597e-04  1.3067444490022478e-03  3.9744183265105525e-03  2.5483049743955394e-03  1.3294522072002451e-03  1.8120667187880186e-04  1.6898289567748983e-04  1.5653480990819697e-03  1.7012308360277411e-04  3.0713017214002609e-03  2.8277507247765061e-03  4.1563356465052952e-03  3.1543017570358082e-03  3.3754290981801403e-03  3.8420540184212532e-04  1.1809584716379264e-03  3.3463088983985001e-04  2.3627713069620065e-04  3.3057575171580550e-03  2.0375163897130388e-03  2.1354457692917259e-03  2.6212442330893209e-03  2.9724429697321280e-03  3.1454339281101191e-03  3.5371146300008402e-03  3.4370320146192511e-03  2.4647808794324836e-03  2.6890747065944649e-03  2.3215681097077719e-03  2.3771698605410314e-03  2.3399797245900167e-04  3.4111479421353071e-03  3.1651362232999456e-03  2.3258672189450380e-03  2.2077078683602593e-04  1.0636744840674126e-03  1.0715067945907012e-03  6.8464100725720042e-04  3.7969939483993723e-03  5.6421746658052822e-04  7.6736183998904386e-04  9.5148630070110928e-04  8.5632760126267186e-04  2.3024833970217316e-03  7.9646902215739306e-04  3.9548531092865108e-03  2.8669409813830557e-03  3.5302086555136691e-04  1.6423273717392349e-03  1.7118028690995871e-03  3.4102026343153661e-03  2.1063287109454477e-03  1.3101421906709949e-03  1.7170609822599271e-03  1.8211763416695345e-03  1.0633632297108234e-03  3.2228269083641732e-03  2.0841003612723607e-03  3.2096805755425129e-03  2.4843020469055952e-03  4.5958720112883383e-03  3.3663819953854645e-03  5.5925311498918832e-04  4.1498357491210162e-03  4.2171930840748679e-03  4.3096074994438240e-03  4.3199095696963528e-03  2.3225708294888699e-03  2.3613872779003212e-03  4.0546972771190754e-03  1.9074019493433340e-03  1.0088601473118132e-03  7.9199040411267552e-04  1.9337540990095113e-03  1.9127627455033606e-03  2.5524245880169630e-03  2.2768863838603169e-03  9.9656547312842840e-04  5.1377243382413418e-03  1.8733979682014775e-04  3.7925446126488584e-03  1.9497681269752291e-03  7.9128610188096188e-04  3.1079400664455574e-03  5.4573493810044452e-04  5.0116771685373713e-04  6.5877280156223907e-04  6.4960484416250175e-04  7.0854311911467262e-04  8.1291843197398332e-04  2.3134638818337254e-03  2.1821987158053891e-03  5.5159839010978783e-04  2.6831014985543054e-04  2.1148609144059537e-04  1.7339653274984252e-03  3.0228480490820729e-03  5.0874444996269023e-03  5.2093841093895765e-03  2.4658566096251054e-04  3.5495846280442911e-04  2.5987245132270980e-04  2.4797987668810585e-04  2.2979422029472136e-03  3.7121595543426473e-03  1.5396950651612742e-03  4.6661466997040841e-03  4.1303050437080692e-03  4.3633987145098039e-03  9.5326163572090935e-04  8.6131179274272663e-04  2.1013163570409513e-03  2.0591854275647426e-03  1.3964352877980227e-03  6.0200504736908410e-04  5.0470052914974915e-04  3.8143808692228704e-03  4.9573249098730579e-03  3.5754039505512640e-03  3.9825870040916369e-03  2.2812326562447029e-03  2.3984666587864010e-03  3.8772826003037985e-03  3.4760117623672425e-03  7.4453701634021702e-04  8.9452814633765359e-04  4.4882868290376031e-04  2.9756326132305416e-03  2.3650910069067648e-04  6.9811708867612943e-04  4.5287667723154235e-03  9.8254440384781642e-04  4.1988895352844790e-03  1.7531573283146145e-04  5.0522061915051113e-03  1.7962708351910149e-04  2.7144673561408650e-03  1.6347472426557922e-04  5.2630384374063215e-03  1.5040146021692968e-04  4.6406765718161793e-03  4.4189847989422560e-03  5.3322123063740236e-03  1.9595693677863571e-04  1.8571450135648567e-04  4.7586085089204267e-03  4.8965025626810724e-03  2.1139996066861757e-04  4.0892559652028170e-03  3.7746446476490539e-03  3.1799610937659341e-03  2.6409922873626484e-03  3.6741501144759675e-03  2.5215351479057728e-03  9.6199803128198464e-04  9.0211254242650014e-04  2.4646334319346312e-03  4.2296983092241936e-03  2.9847251200240646e-03  2.7680167846413236e-03  4.2866158809212618e-03  1.6096572927317893e-03  1.2771157376619865e-03  7.0445782779028339e-04  1.0384299922968421e-03  1.0075047940686422e-03  2.7491036733317429e-03  3.2977991763572662e-04  8.6186628244488853e-04  7.2481748641350756e-04  1.5411115660909208e-03  1.1737225823503859e-03  1.9968474960588849e-03  4.9908164987138917e-03  1.3408587901488846e-03  2.6964113706084958e-03  1.6236082330051659e-03  2.0724279567793801e-03  1.1986528765991437e-03  7.6991606407067926e-04  5.4667858222273475e-04  1.0211190437844242e-03  4.0218593608777636e-04  3.2254670814930872e-04  3.0492172396734288e-04  3.2112021920749022e-03  2.1369673708930220e-04  2.4974409211481470e-03  2.4293513681150286e-03  3.7107754756670929e-03  2.3269688963679919e-04  2.4017445338813921e-03  2.9199551910854361e-04  7.4284906753343367e-04  1.9749874959801867e-03  2.3289107605584548e-03  1.5819670133228233e-04  1.1316925985426305e-03  6.3306744014838085e-03  4.7779257793658346e-04  6.8963398176013916e-04  1.5134137901064238e-03  1.2698203277646878e-03  9.3247460200385755e-04  2.0242631861829273e-03  1.0733040331083275e-03  1.1689209222016576e-03  1.7251862319943316e-03  2.6396799523062987e-03  1.4352455133425956e-03  4.3956452504197475e-03  2.6822767239987550e-03  2.7931010499930636e-03  3.8180268610091338e-03  5.0224075118574147e-04  3.0847803586448465e-03  3.0654333582075402e-03  2.6808201482229200e-03  9.6513269781091067e-04  1.2306683630517903e-03  8.1031826064230394e-04  1.1857098017310245e-03  3.3345785222222411e-03  4.7453688558499983e-03  3.9515311750334802e-03  8.3136076267648290e-04  3.2634036020798736e-03  2.3327631915887001e-03  5.3045250276715838e-03  3.3244533254068406e-03  3.4766023461984537e-03  4.5482329091849029e-03  1.7330725265868804e-03  9.5334787165432880e-04  4.2798861776970445e-04  1.0794655276809293e-03  2.5222520238378076e-03  3.4092197872259986e-03  3.2597185650185510e-03  1.7925055525085140e-03  3.7833825773464047e-03  7.9819323634856994e-04  3.6306384216598414e-04  1.4791850759042955e-03  4.6883341242014440e-03  1.7958217053948389e-03  1.2097433442411617e-03  1.6975648263452231e-03  2.2654655107664555e-03  3.2938001808741359e-03  1.3763212444231386e-03  1.3432323275809038e-03  1.8801661257080431e-03  3.3523243755775737e-03  9.8038821860816066e-04  9.4487915849644462e-04  1.0012423614410538e-03  2.7162993260386598e-03  2.6927594582836119e-03  8.3202268583550446e-04  2.4607461847535740e-04  2.3794108291127754e-04  8.9776560471671639e-04  5.3225470402714472e-03  1.7550550740522586e-04  3.7496843777817888e-04  2.4807609681597276e-03  7.4632483663074974e-04  6.6944806513068579e-04  2.3686071966511841e-04  3.5437953874093505e-03  9.3859458838540795e-04  3.4768300695921879e-04  3.1294574915943427e-04  5.3552720223896716e-04  5.2102257806478378e-03  2.4530502299166305e-03  5.2488763686574051e-04  2.8780523665772472e-03  1.6429000459032769e-03  2.7807450894551632e-03  1.3255175232156789e-03  1.6431516825394898e-03  1.0577185712835062e-03  4.6250204257994630e-03  2.5186055804044638e-03  2.2192226858053421e-03  2.9365268185127724e-03  1.4196062063195469e-03  2.6094188859878383e-03  2.3487210414724255e-03  1.3613970106105145e-03  1.4454786788965007e-03  3.9144929488350595e-03  1.8129376158568890e-04  2.1373831399178160e-04  1.5665148369759885e-03  8.0314046916684929e-04  1.9150034949344987e-03  1.7711361827480604e-03  1.2688751621331988e-03  1.8063752440861446e-03  3.4340547937419604e-03  1.0756203461508790e-03  4.3807773035920653e-03  4.3893508807028459e-03  5.2892472808332969e-04  2.1617354830562353e-03  2.1058243802687944e-03  1.2719108815066262e-03  1.4896333049683689e-03  3.6028624297924482e-04  3.8848370449802807e-03  1.9743329085089622e-03  9.5762097405256035e-04  8.4961245317061607e-04  4.8132227386581605e-04  3.3606939761855059e-04  2.1885709509721469e-03  2.2224630474736994e-04  1.0919489678545581e-03  1.3581386208835157e-03  3.3475552577668028e-04  6.2288012124159578e-04  2.4931384125079459e-04  2.9939187105186213e-03  1.0772679609906814e-03  6.9681151220719504e-04  4.5966632730517279e-03  2.3811627321108468e-03  9.8775208396041213e-04  4.0123403321133443e-03  1.5678468578245622e-03  4.7709050724445146e-03  2.7096134540941469e-03  1.1215313091068482e-03  4.7800401081989066e-03  3.4962947934514981e-03  3.9326834291542254e-03  4.8323651430287494e-03  3.2964855238191992e-04  9.0946068824772212e-04  1.1764319066509838e-03  1.4693005906350734e-03  1.2409024460573275e-03  1.9113555522777979e-04  1.7379468348586141e-03  1.1369998662212584e-03  2.9441005844762741e-03  3.6302611306243179e-03  3.0106566348675843e-03  2.9551689525861226e-03  2.9087686000470229e-03  2.3118883291927193e-03  3.1046949615483907e-03  3.4511160728883787e-03  4.8285019775511240e-03  2.2682003088226959e-03  6.9161529830524197e-04  7.5555884032103902e-04  5.8831885508333606e-04  7.5400254031437878e-04  1.9027107794420691e-04  2.1377342987101961e-04  3.5290128352367671e-03  3.9602868475604085e-03  5.6754152388929519e-03  1.6764634718052628e-03  1.5936370377020920e-04  5.3809179279369233e-03  3.7812955109867421e-03  1.7659639885002465e-04  3.2085269883355520e-03  1.9467247192560089e-03  4.1116394663458260e-04  3.2806790128311691e-04  9.9177589540270432e-04  8.9414651538020939e-04  3.2224967564977580e-04  2.5817618150012615e-03  2.0602101677921159e-04  8.6700756073631029e-04  1.7940003275587917e-04  1.9473497465937289e-04  5.7409545314706292e-03  7.0751216471880334e-03  2.3757714845282028e-03  1.6936960396259321e-03  3.2058704110520843e-04  1.8080588526769134e-03  1.3852823923630614e-03  1.7421876683718783e-03  8.8927600256388795e-04  3.6243091063678187e-03  2.4540146715546500e-03  2.0459008739466375e-03  1.9649608347741069e-04  9.5812257811827130e-04  2.7295861151018464e-03  2.7010455781462249e-03  2.4528699822422176e-04  3.0357300044241194e-03  9.6780586956312709e-04  2.5263557358488242e-03  2.6542459904413001e-03  5.5269827562352044e-04  1.1076354106751636e-03  3.0119962559736961e-03  4.8593220712741412e-03  2.3969441895785783e-03  5.3066402457482755e-03  8.8953210374887728e-04  2.1800838211573719e-03  4.6993139452768172e-04  1.7817064389840300e-03  3.3186898320307