<?xml version="1.0"?>
<VTKFile type="UnstructuredGrid"  version="0.1"  >
<UnstructuredGrid>
<Piece  NumberOfPoints="2446" NumberOfCells="4585">
<Points>
<DataArray  type="Float64"  NumberOfComponents="3"  format="ascii">0 0.41 0  0 0 0  2.2 0 0  2.2 0.41 0  0.2404508497187474 0.2293892626146237 0  0.25 0.2 0  0.2404508497187474 0.1706107373853764 0  0.2154508497187474 0.1524471741852423 0  0.1845491502812526 0.1524471741852423 0  0.1595491502812526 0.1706107373853764 0  0.15 0.2 0  0.1595491502812526 0.2293892626146237 0  0.1845491502812527 0.2475528258147577 0  0.2154508497187474 0.2475528258147577 0  1.1 0 0  1.1 0.41 0  0 0.205 0  0.55 0 0  0.55 0.41 0  0.275 0 0  0.275 0.41 0  1.65 0.41 0  1.65 0 0  0.8250000000000001 0.41 0  0.8250000000000001 0 0  1.375 0 0  1.375 0.41 0  1.925 0 0  1.925 0.41 0  1.5125 0.205 0  1.7875 0.205 0  0.6875 0.205 0  0.9625000000000001 0.205 0  1.2375 0.205 0  2.2 0.205 0  0.4687002074688797 0.2068568464730291 0  1.99375 0.2152743902439024 0  2.0625 0 0  2.0625 0.41 0  2.2 0.3075 0  0.4125 0 0  0.4125 0.41 0  1.7875 0.41 0  1.375 0.1486128048780488 0  1.5125 0 0  1.7875 0 0  1.5125 0.41 0  0.8250000000000001 0.2613871951219511 0  0.9625000000000001 0.41 0  0.9625000000000001 0 0  0.6875 0.41 0  0.6875 0 0  0.1375 0 0  0.1375 0.41 0  1.2375 0 0  1.1 0.1486128048780487 0  1.2375 0.41 0  1.65 0.1486128048780487 0  1.126715909090909 0.2793064024390244 0  1.676715909090909 0.2793064024390244 0  0.8517159090909092 0.1306935975609756 0  1.348284090909091 0.2793064024390244 0  0.34375 0.3032389320646208 0  1.894702181800738 0.1282910975492754 0  2.092797818199262 0.1282910975492754 0  1.85625 0.3075 0  0.61875 0.3075 0  0.61875 0.1025 0  0.3648540804333487 0.1240075933101478 0  0 0.3075 0  0 0.1025 0  2.099172119769978 0.25625 0  0.48125 0.09238439620688085 0  0.5781001037344399 0.2059284232365146 0  0.48125 0.3196743479159776 0  0.7265881057911006 0.3055240343720796 0  1.99375 0.08395950269330846 0  1.459960956013612 0.3075 0  1.569025960719943 0.2986889805672169 0  0.75625 0.08213100772579164 0  1.03125 0.3278689922742084 0  0.923871252904788 0.3078247185783941 0  1.959375 0.3126371951219512 0  1.749222215368287 0.1025 0  1.275777784631713 0.1025 0  2.2 0.1025 0  1.225938124459196 0.3075 0  1.550777784631713 0.1025 0  1.000777784631713 0.1025 0  1.44375 0.07430640243902442 0  1.16875 0.07430640243902437 0  1.899250267340833 0.2229966846119207 0  0.1020898364287272 0.3140258291809757 0  1.766482954545455 0.2934032012195123 0  0.3405058858996321 0.2119987970531874 0  0.7710785630958338 0.1710968191298857 0  1.046078563095834 0.2389031808701144 0  0.2 0.3400647632937836 0  1.421109702350723 0.2261157654379721 0  0.2800464974185557 0.08982544815605742 0  0.098916018031319 0.09171660955420841 0  2.13125 0 0  2.118919042110979 0.3422084711244843 0  1.30625 0.41 0  0.89375 0 0  1.597888256393107 0.2173787389261347 0  0.20625 0 0  1.829299675393195 0.07400700849299596 0  1.71875 0.41 0  1.16875 0.41 0  2.038220665644273 0.332420740103091 0  0.34375 0 0  0.417496017710808 0.2696595573092803 0  0.2 0.07687845740457822 0  0.9295982307099278 0.1343158415898188 0  0.07390688010811153 0.1697064032433452 0  0.5238366813727013 0.2578302467013575 0  0.05452951551825875 0.25625 0  0.5229630068078351 0.1548816096928243 0  1.452769549894695 0.1548122580621249 0  1.369219062229598 0.07430640243902442 0  1.30625 0 0  0.8504409521244898 0.3356935975609756 0  0.8821881244591965 0.205 0  1.720943423819132 0.1714577452753128 0  1.157188124459196 0.205 0  1.094219062229598 0.07430640243902437 0  1.03125 0 0  1.304056576180868 0.1714577452753128 0  1.67579304192913 0.07430640243902437 0  0.2751941921308361 0.3346083473122598 0  1.209670467133757 0.1362100266964769 0  1.025335513626278 0.1700681449722324 0  0.7562500000000001 0.41 0  1.58125 0 0  0.7567170593862014 0.2409196493502535 0  0.6926714215682891 0.1272249611432207 0  0.4139715849905988 0.3397932387114203 0  0.9840787304190477 0.2717749043358119 0  0.06875000000000001 0.41 0  0 0.35875 0  0.9281250000000001 0.06276726142697993 0  0.5507396469029935 0.3219409231578227 0  0.5504468037989405 0.09136885600634273 0  1.58125 0.41 0  1.631724228912893 0.3381867502687533 0  1.825608881788174 0.14499488549201 0  1.85625 0 0  1.44375 0 0  1.44375 0.41 0  1.85625 0.41 0  2.13125 0.41 0  0.7562500000000001 0 0  0.89375 0.41 0  0.4812500000000001 0 0  0.34375 0.41 0  0.4812500000000001 0.41 0  0.20625 0.41 0  0.06875000000000001 0 0  1.16875 0 0  0.61875 0 0  0.61875 0.41 0  1.03125 0.41 0  1.71875 0 0  1.99375 0 0  1.99375 0.41 0  1.340625 0.3489494290853124 0  1.134375 0.3489494290853123 0  1.700180620188976 0.3438659752031281 0  2.135782184673599 0.07126652247502523 0  1.668441847249787 0.2129203728327609 0  1.295782514339747 0.2378437748815763 0  0.8233075729931248 0.06842334294821524 0  1.409375 0.3520314716057996 0  0.403505597322782 0.182067236678212 0  0.378125 0.05794951541303489 0  0.3043468223249023 0.1518321115979534 0  2.129248544730567 0.1906135162504124 0  2.060771381434487 0.1989445750470348 0  2.013252586573865 0.1496169464686054 0  1.942766402200229 0.1734448904596831 0  1.895522487186454 0.06076163953489683 0  2.069553871656643 0.06605731020975725 0  1.274680914880868 0.3520219391081363 0  1.614713220494657 0.09473434380863296 0  0.7899021319497519 0.3149123934144827 0  0.69518737419149 0.0634051089053758 0  0.2971740475496061 0.2592172353407536 0  1.72990325744076 0.2380068107952482 0  1.356580098625191 0.2120393231351682 0  2.034370752044885 0.2668681600792073 0  1.51768709249349 0.3426260931494756 0  1.561883724969884 0.1650446847858835 0  1.197344062229598 0.2523725417393646 0  1.804085235518364 0.3468178408964637 0  1.817887819205233 0.2589243285818559 0  1.905897727272727 0.3485060975609756 0  0.6719798073392919 0.2688965171178177 0  0 0.05125 0  0.653125 0.35875 0  0.6396896119294488 0.1627615407790282 0  0.4274150154087412 0.1242548552168279 0  1.192836486056382 0.3562350748565544 0  0.8279124365364005 0.183856489168822 0  1.097485222388854 0.2083571153401724 0  1.28257088594801 0.2944411014911587 0  1.474860187679412 0.2504218616229368 0  1.406767003493824 0.2829282258560709 0  0.446875 0.04619219810344041 0  0.515625 0.04585361801037557 0  0.592043440706648 0.05125 0  1.845656689180403 0.1998310418452388 0  2.144958525570388 0.2909790873294231 0  0.6171090763650112 0.2492366900333857 0  2.2 0.15375 0  0.5145586920831158 0.3648371739579888 0  1.57794966442982 0.3540357145964566 0  0.721875 0.3633107922168974 0  0.0496154796471391 0.333125 0  0.5843750000000001 0.3662560860076676 0  0.5810878747760798 0.1474002776121195 0  1.508991196088596 0.1421783375065625 0  0.8840670607017558 0.2640994375393898 0  0.09776612425612034 0.2204896805326566 0  1.50436820029908 0.06143401634903343 0  1.223857000523521 0.0823554862453532 0  1.153316824384777 0.1289850171317837 0  2.148922302309752 0.1258841779285271 0  0.309375 0.04312325590431198 0  1.621993280276081 0.2841214267927899 0  1.550118654119087 0.2461998729100966 0  1.327182649291491 0.1216967252533594 0  1.051977450479407 0.1221382572915816 0  1.753125 0.04556020050186112 0  1.271875 0.04556020050186116 0  0.9816084133102366 0.05126138213476004 0  1.039051841454368 0.0572224914831029 0  0.9719230514536006 0.3480477870845102 0  1.94956388244759 0.1180512551534177 0  1.949997712993411 0.04965831614304109 0  1.771961817615021 0.1530278789497521 0  1.909246823951428 0.2812757146784527 0  0.2459536687882397 0.04668633953831142 0  1.948575539857022 0.2445328248721197 0  1.697271520964565 0.1233917627620729 0  0.7964897648514618 0.1211426571931604 0  1.065625 0.3689344961371042 0  1.085849084308977 0.3170853572226867 0  0.4702981435440001 0.260434880697798 0  1.577403511714593 0.05463601888079143 0  0.05622663515370135 0.05493816910862376 0  0.3267207591099919 0.3566194660323104 0  0.9003051618565143 0.3564049499960621 0  1.751571320346033 0.3651102912045228 0  0.1583785085108421 0.2994699345738728 0  0.1455283439499995 0.3542795598723423 0  2.2 0.35875 0  0.2347662494194072 0.298325008655211 0  0.1527284455616188 0.1065771775690181 0  0.1382139529076665 0.05427454456341477 0  0.8749341636311069 0.05110114999892954 0  0.643661668713109 0.05693499781019222 0  1.466879772203159 0.3611261772912453 0  1.990280163552011 0.3564754268533217 0  1.17471064520912 0.2990917256188288 0  0.5202693090594349 0.206382495511728 0  0 0.25625 0  2.2 0.25625 0  2.2 0.05125 0  0 0.15375 0  1.853978576207987 0.35875 0  0.9787513713939683 0.1487523696999336 0  0.240625 0.3722153812029779 0  1.515638456102889 0.2882700110184686 0  0.09048297387599738 0.3637717362208066 0  2.150453692751374 0.2387066338105111 0  1.323782677156475 0.04897634338873398 0  0.8074131292871642 0.3624701995505916 0  1.409375 0.03715320121951221 0  1.406484531114799 0.1087852750766809 0  1.134375 0.03715320121951218 0  1.627401732573545 0.04552157221025036 0  0.1170173172005315 0.1427610859166811 0  2.045405893604797 0.1105340662939892 0  1.255408269734577 0.1577307500159216 0  2.028125 0.03707597992059326 0  0.4743610090857199 0.1421513964721819 0  0.9354010469015898 0.250631300585664 0  0.04420832937638274 0.128125 0  0.8922386349349938 0.0992956419364831 0  0.1197849154434487 0.2663398672460083 0  1.248258025468107 0.2565907092181813 0  0.3746885856929528 0.370723531618974 0  1.203125 0.0366132337404304 0  0.5724622277005015 0.2751253816079333 0  0.3365425205162783 0.08395777655057959 0  2.072662025974815 0.2975086504196739 0  0.4581080832182547 0.3648371739579888 0  0.3874522734668214 0.2295447548840689 0  0.7827853612484443 0.04106550386289586 0  1.887722846421017 0.1760882698830035 0  1.472640588990488 0.1118278026240017 0  1.865937103925594 0.2604137786483804 0  1.463913572748262 0.2030442564990043 0  1.376426316059077 0.3186741374914345 0  0.6641993820150034 0.3141688596240831 0  0.2943117490824315 0.2130987422685822 0  0.3478153998082709 0.1666571081082676 0  0.3427990510599805 0.2575950027870776 0  0.7997118993855807 0.2216171933356366 0  
[...]
<PointData  Scalars="f_10-0"> 
<DataArray  type="Float64"  Name="f_10-0"  format="ascii">1.5906628944838677e-05  6.0999442522800926e-04  4.1397491052531582e-07  2.5485852034600780e-07  7.9573808645556584e-04  1.4980269509505379e-03  2.0297507565002594e-03  2.1679042020168143e-03  1.4963823892531001e-03  6.5685444232701823e-04  2.7269240236485221e-04  1.7153506731418491e-04  1.3355148064812428e-04  2.1855066782979702e-04  2.6736114764225626e-03  2.8240177929201633e-04  1.2857989035089515e-04  4.4410625047166729e-03  4.7558464973697723e-05  4.9747053299866268e-03  2.3505098462407409e-05  8.0206943027159709e-05  2.1394936264666157e-04  1.3971672088724632e-04  3.7893463146421551e-03  1.1579176544997743e-03  2.6103867862913531e-04  1.4374335553299134e-05  7.0711772241520252e-06  9.0843496189798841e-04  1.8738234417583512e-04  1.8454909204625267e-03  1.8225054825866012e-03  1.6204221296349797e-03  2.1471368013413311e-06  1.4298715948795006e-03  2.5433809000264327e-05  2.5075562164226575e-06  1.3510703473322546e-06  1.1993198701790234e-06  4.7728565464388436e-03  3.0696326876723360e-05  2.7198770079900095e-05  1.6513720578408058e-03  5.6892999573466088e-04  6.2012180706251315e-05  1.6794930894925258e-04  8.8258574560068825e-04  2.1542474586492947e-04  3.3103930039049445e-03  8.0498996284124468e-05  4.1378875754833934e-03  3.4331308009480457e-03  1.8016589642891566e-05  1.9215074702061997e-03  2.4646773281022838e-03  3.0673014249306424e-04  5.3224301079937524e-04  8.7365160341449169e-04  2.6898448115014989e-04  3.1302776940261767e-03  8.1407515785029971e-04  1.5919726568985879e-04  7.2911106489876047e-05  7.6206678046751567e-06  5.6636652958585189e-05  1.6933166277317523e-04  4.0298528720474147e-03  3.0988802675630651e-03  3.8210630324187046e-05  3.1075758023339409e-04  6.1446821050838287e-06  4.2022015923971244e-03  1.8483717566911775e-03  9.9744244681089028e-05  3.1978398944786302e-04  1.9433784878515274e-05  5.1584143630639006e-04  3.9183983524104787e-04  3.8470870397569073e-03  4.4387139649202767e-04  5.0142663106320789e-04  1.9992125881761864e-05  2.4177131182197739e-04  2.1690389524082398e-03  1.7310094608110112e-06  6.5878229310756535e-04  8.6151642537373189e-04  3.1196484197768531e-03  1.2612415575688830e-03  2.6322335362321389e-03  6.6120281709070456e-05  4.0017147579313780e-05  1.3305387487760103e-04  1.2732722874259019e-03  2.5620377538229846e-03  1.3193583465067275e-03  3.9400581638154865e-05  1.0711073314936227e-03  4.1464196380982307e-03  4.8937200920815480e-03  9.0324918441489262e-07  2.1097031219091278e-06  2.9279807667358560e-04  3.5684324762532940e-03  5.9808710958706053e-04  4.6958091306436777e-03  9.9499146914586634e-05  4.9610152602707659e-05  3.0244569462282999e-04  6.5602054721294171e-06  4.9204707307209305e-03  3.6484832456847559e-04  5.5279079938990641e-03  2.9440222919865631e-03  2.1600643055488653e-04  3.8354495719588298e-04  7.3121355414283636e-05  3.2983283589861586e-03  1.3093175647690483e-03  1.6450577728479813e-03  1.5176981627376090e-03  2.7549105770591968e-04  1.8330858962936497e-03  3.2962867500097785e-04  1.7183726195431294e-03  2.9327327248339866e-03  3.0174801984081865e-03  1.7741741155578733e-03  3.5238881492379238e-04  5.2470415943919530e-05  2.3000352054154695e-03  2.3131241128644155e-03  1.0640410338564226e-04  3.6385731249845033e-04  1.1117373895118618e-03  3.5353855913266416e-03  6.3223815655324912e-05  8.8466201248973443e-04  1.6292535488242502e-05  2.1128975954800545e-05  3.5078938895802911e-03  1.0131747585639913e-04  4.2258440423647336e-03  1.2013985187675774e-04  1.9647264668095491e-04  1.4474880731430998e-04  3.0483371668762928e-05  8.2434714817586731e-04  2.1882979373532633e-04  1.4871715369569160e-05  5.3470199578852592e-07  3.9746717120900136e-03  1.7546609787879924e-04  4.6103362231042066e-03  2.6514656005526516e-05  3.7488407449428469e-05  2.0292678385661226e-05  1.3066258782082382e-03  2.3159522650097837e-03  4.2865455502093374e-03  6.1321545939227952e-05  2.5067221235066083e-04  1.1881827216072280e-04  5.8990838728528749e-06  3.3041759008948123e-06  4.1365512611778491e-04  4.0261041717206851e-04  1.2309921568250668e-04  2.7528232833878928e-06  4.1599811928400406e-04  1.2163871762056165e-03  3.7693031963623980e-03  3.6603419947934201e-04  1.9244355950646963e-03  4.6329365433040674e-03  2.2557372060231558e-03  5.1334745315102019e-06  1.2100698598162718e-05  2.1376907434973117e-05  4.7320660440548930e-05  4.4774993417251200e-05  6.2396228424123890e-06  4.1835666936954188e-04  5.9142711466550403e-04  3.3025137204931632e-04  4.0785407361979093e-03  5.9561078077466324e-04  2.5020239559922166e-04  1.3279230982885669e-03  1.2659227417846924e-05  3.0429176392757120e-04  8.3794089034346434e-04  1.1483388089579653e-03  5.5628556218185737e-05  1.1432499169868640e-04  2.1805715947404943e-05  5.2897474895048863e-04  4.6781066581956515e-04  8.8806319310233653e-05  3.0793181830697743e-03  3.4042417777490758e-03  3.9493189656237973e-04  2.2463930013079236e-03  1.7212942448921662e-03  7.4377518675238570e-04  7.9390009679143495e-04  7.2221855447367894e-04  4.6375309342908252e-03  4.5070948544612185e-03  4.3422527139472837e-03  1.1625692998213421e-04  2.6859486820732169e-06  6.9122908276793207e-04  2.1465382927014590e-06  5.0330042010843468e-05  2.1037894359117755e-04  1.1593428925565292e-04  2.8772352182358256e-05  6.2661672681051719e-05  3.5099220884280461e-03  1.0842364853665889e-03  9.0851243200883018e-04  1.1726040725050551e-04  8.9718076834204106e-04  2.3968029762696953e-03  2.5139680619055251e-03  3.5879387101840281e-06  4.9337634346271900e-03  3.4907704901027093e-04  6.3105589497059475e-04  1.9251223347104551e-03  2.8330584165666634e-03  1.4303628852936834e-04  1.9884996612953908e-03  3.3473947547309475e-03  3.1394583684202317e-03  3.1254530385108721e-04  3.9818641247305950e-05  2.1024991543603135e-05  2.2785354922319966e-04  4.3537065864307545e-05  5.1534570004506900e-03  3.6766931973561428e-05  3.8131953884553945e-04  3.3645770388153165e-03  3.0769845352705366e-04  5.4631950814987642e-04  3.6422039875453623e-04  5.7189895437882840e-04  1.0934840394868899e-03  3.9544431018727070e-05  2.3589613820846475e-04  6.3588977779663295e-05  6.3010976423172237e-05  2.7108898305315294e-05  5.8027731341258038e-07  8.7994496136449589e-05  5.5041405441521828e-03  5.4910083611731109e-03  3.6828261085367791e-03  4.2184487380599158e-03  2.9048074686423389e-04  7.9133583229350004e-06  7.1239557068210541e-04  1.6700211959394110e-03  7.1317917360832217e-05  1.7742714193891518e-06  9.3047902143786897e-07  2.1927496544092817e-04  3.0443584506267453e-05  2.6724512411890138e-03  2.7498504502828440e-05  5.2291375271702484e-04  2.1640279469139213e-05  3.4210315550097351e-06  1.7287030950407826e-03  1.6416657753812584e-04  1.1814932842486667e-03  1.5605059580132336e-03  2.6554193453894584e-03  3.7974054160963252e-04  2.6628397293189526e-03  1.2746907976620769e-05  2.0151144331403679e-03  6.6077461272817439e-06  3.3202002522482771e-03  1.1222890724195880e-03  4.4180454171229580e-04  3.4085200088286149e-03  7.7435494825918094e-05  1.0828634451168881e-03  3.4552566355152931e-05  2.2953608359479716e-03  2.8264290242184542e-04  4.1879308488820995e-03  6.3807313583691871e-06  4.3976664252046732e-05  8.8094100532333844e-04  3.9298283517779972e-03  8.2348998980336623e-05  1.2410888942466698e-03  7.4975131296855637e-05  1.0791164992481625e-03  5.3966569849750554e-04  1.9055898790596779e-04  1.3345643044993705e-03  2.0439505992297718e-03  6.3697204859195530e-04  1.5054279674614488e-03  1.9751771635980671e-04  1.7267011871741961e-04  2.3979385689491433e-06  2.7146373772644174e-03  3.4356074621396562e-03  1.4461591212210044e-03  8.0441812970297611e-04  1.1445739974101522e-03  1.3805629845290936e-03  2.6895613473286208e-03  2.1494918223619428e-06  6.9543010418912697e-04  1.7504482161471672e-03  9.7845191323006056e-04  8.6098051961609170e-05  1.2254014143537505e-04  2.1662283351174792e-05  1.3645694452755024e-06  8.5640307812288597e-07  2.5254064988540803e-06  2.6934288653476818e-03  4.0406277733390349e-03  9.8832206972392396e-05  1.7610289006035618e-04  1.3375340665245875e-05  4.2366701290817111e-03  1.0095284046099202e-03  1.9356038739812371e-03  6.9056430519500659e-04  5.5851406843089818e-04  1.4403647711830803e-04  1.5665931082980291e-04  1.5990124974421164e-04  2.0383711784305807e-04  2.3414491526837253e-04  2.7834090811626108e-04  1.0486548003619306e-06  6.3917933840379751e-07  1.5910347556126703e-05  3.9749377495296957e-03  1.3268668976339933e-04  2.2423255615932310e-03  2.6078170149740594e-03  4.3750821232601313e-04  9.3093042781762831e-05  8.1003736490888536e-05  4.5835879725880646e-04  1.0039874210682745e-05  1.0530884041907412e-03  3.3956072592529105e-03  1.9958872943389575e-05  2.9235589478537835e-03  1.2497265648750953e-04  1.1096231811382475e-04  3.3172774663590729e-03  4.2950178992408033e-03  1.9169211834054803e-05  1.2834672987352213e-05  1.9648518091550064e-04  7.7131238559260214e-04  3.6626228606901972e-04  8.1468041739643168e-06  9.2582791050856064e-04  5.0250933168641517e-03  2.1672066296223053e-03  2.4274182174831536e-03  4.9326887891551442e-04  6.8430175551013775e-04  1.6618698717951196e-04  1.4129449383283726e-04  1.9068850356810914e-03  2.7678218878080985e-03  1.2967472333577088e-03  1.3419333837596332e-03  2.1836311786175675e-03  3.0524293987650437e-04  3.3694172791515609e-06  6.1278741422363179e-04  1.2246132987101951e-05  5.5289421343841826e-04  1.0324925790431229e-05  5.1198335651112536e-05  2.1225834728840927e-05  4.0251840323536210e-05  1.0376437774430361e-03  2.9429753451291863e-04  2.5941816824226466e-04  4.8945574357808319e-04  7.4517522543834577e-04  3.8438528905509838e-04  1.3186549281713804e-04  1.9079490023515463e-05  3.4508955261624210e-06  1.4924008563314125e-03  2.8823391656120669e-03  5.1818675104488786e-04  4.6397067535985820e-05  4.4367132862899441e-03  7.3617309172051862e-05  1.6148760821208994e-04  3.8305777027277193e-03  2.2951853300240733e-04  1.3026615713180741e-04  1.1023008567573947e-03  1.8478413294655910e-04  1.0356921066389383e-03  3.5531098141019031e-03  1.1103914976087391e-05  7.2798884921434798e-04  2.9641767886125386e-05  2.3978813082197294e-05  7.0431664795568550e-04  2.4939468675382594e-05  2.7788954792882800e-03  2.5440708570337008e-03  3.8342420334523653e-03  2.8600702169679806e-03  3.0797409829946133e-03  1.9838134288854232e-04  9.5758435773146688e-04  1.8251060802941069e-04  5.2468568593435843e-05  6.2864114998603410e-04  2.5601770892703349e-04  1.5825669840625143e-03  3.0315657192190221e-04  2.0227517441255539e-03  1.7407725963473522e-03  1.4293045781183129e-03  2.8132080270198588e-03  4.2351425110092965e-04  1.7507066793156926e-03  3.3535818967401480e-05  2.0675894817683712e-03  6.2779120085296080e-05  2.5111758912154561e-03  2.2572132340664621e-03  1.9817777125484544e-03  4.7700228405599373e-05  2.8901929329809198e-04  1.9855703514325081e-04  4.6654168576407449e-04  3.5008115959832497e-03  3.3875662842567489e-04  4.0994308081824290e-04  7.3304136098511965e-04  1.2616415120705733e-04  6.8973087484975584e-04  1.9607888638186464e-04  3.6267735767326476e-03  4.3805795997291645e-05  1.9358253921609726e-04  1.0441960115842482e-05  1.6523362489753367e-05  1.9877898228760783e-03  1.8349964115132241e-03  4.2937792204648922e-06  5.5815872826979173e-06  3.1829218658948260e-06  8.9358863327632142e-05  7.6178869877440130e-04  1.7813399174667361e-03  2.7693778739732531e-03  2.1581657295064952e-03  4.1814425556793893e-03  1.4345007753942699e-03  3.7375779143544247e-04  3.4315832617657976e-03  3.5786815246421399e-03  3.6823030724997576e-03  3.7770605468558927e-03  2.3473157854922243e-06  4.7064745958696301e-06  3.1844233292597358e-03  3.8657026000864377e-05  1.2710620670556324e-06  5.9887241764617206e-04  1.5349294341370349e-03  1.6501967246474183e-03  1.0415303463084340e-04  1.7709996511423908e-04  7.8319313433858231e-04  4.7927905149753149e-03  3.6180120474769811e-05  3.3294685761104518e-03  1.6857308699953280e-03  6.0245492118740748e-04  2.7962779797830379e-03  3.3624578981916828e-04  2.9432352463289424e-04  3.4785338152674831e-04  2.7531278832929312e-04  3.2641106354536317e-04  6.0068744176017773e-04  1.2780494033563876e-03  5.5475061409043564e-06  3.0513574690120397e-04  1.2266013682948906e-04  6.0329617248775642e-05  1.4806286894973300e-03  2.7332893526448359e-03  4.7368068728792616e-03  4.8524830812402379e-03  8.3840984597337049e-05  1.7565064891319313e-04  9.9779735723473051e-05  9.3306187019956356e-05  1.1319619435662862e-04  2.0962154007504053e-03  1.2970713320131458e-03  4.3243070758043319e-03  3.8060686910967412e-03  4.0273970270893328e-03  5.1839112919781910e-04  6.2193792088799531e-05  2.7355177313799265e-05  1.8080011457796063e-05  2.6643966365407240e-05  3.0008859607030439e-04  3.1134362922328416e-04  2.4645015789546559e-03  4.6012239228604467e-03  1.3396488360340906e-03  2.8534978145043381e-03  5.4990435712521566e-07  1.4644210991477373e-06  2.4962345217664620e-03  9.9135777621074802e-04  1.9392332121223547e-04  3.7557353229619775e-05  2.6776975541045311e-04  8.9244124002895261e-05  9.2918280158749559e-05  2.3918375080894574e-04  4.0591520382462854e-03  3.4262241861244761e-07  3.4462951362447519e-03  2.8330322947537207e-05  4.6937366564873415e-03  3.3577880200949108e-05  2.3346960899063274e-03  2.1891652194432755e-05  4.8965369783548181e-03  1.6966397171709004e-05  4.2126265028606669e-03  3.8844932100805239e-03  4.9719431683430248e-03  5.3660256698922404e-05  4.1980498540361813e-05  4.3621535585210191e-03  4.5251130672413703e-03  6.9211168564287405e-05  3.1717219988329610e-03  2.1086507770907209e-03  2.7979402361638531e-04  9.1863820907195578e-06  1.7176506952823990e-03  3.8326214236068617e-06  4.7343542789740831e-06  7.0932917880117607e-05  1.9719581193142213e-05  3.8155544264961206e-03  1.4097075435248081e-03  2.2135772429645400e-03  3.9683867945345631e-03  1.1153409048503104e-03  8.9570026092446187e-04  4.9217246916131595e-04  3.7936564621904642e-04  4.3171610470689009e-04  2.4311323086802264e-05  1.0784843744574083e-04  3.9953841664263354e-04  2.6603433919293953e-04  2.7228610214456397e-04  3.8217281513622401e-05  3.3433712982958570e-04  4.6696108323071748e-03  1.1163834681472606e-03  1.2721342731152733e-04  3.5279858231750360e-04  1.4709024243393693e-03  2.8780809076016401e-05  2.1569787938905354e-04  3.7423020903610914e-04  8.0547133517385556e-04  2.4050094101344820e-04  9.6637128444374931e-05  1.0291393914513520e-04  3.8855448152507827e-04  6.8085128282790650e-05  3.9990360334990505e-06  6.7628381951541096e-06  3.0895605696889083e-03  8.6655717429557551e-05  1.5365544581873738e-03  7.9675264277481001e-05  4.9240930956584103e-04  5.5031236778644125e-05  6.3176985865521360e-05  1.9823915310081407e-05  3.8308384289699483e-06  5.9826781361577474e-03  2.9803705251758085e-04  5.0029942934596704e-04  1.2785896796633765e-03  9.3193781832013840e-06  3.2757993955216091e-05  1.7130290324144392e-03  5.2736788336621912e-05  1.9111677310387198e-04  1.0566512032376777e-04  2.7211206695631779e-05  2.3353553711785051e-06  4.0701073382432016e-03  2.3535240247031471e-03  8.2358283243321373e-04  3.4419529776328383e-03  3.3568468363557588e-04  6.9642993871296644e-04  4.4953662272842774e-04  2.3950956569741590e-03  1.2098311712480006e-05  9.8732453830541926e-04  1.5891070253874930e-04  9.4048504911832694e-04  3.0403544451899443e-03  4.3754313902078928e-03  3.6282120365656490e-03  1.3953315976970987e-04  2.6382064299946355e-03  9.1828962383240335e-04  4.9629548078763755e-03  1.8472638928194768e-03  3.0414727778934995e-03  4.1103319276012294e-03  1.4903202673692329e-03  1.6555780319743486e-05  2.5685435577969020e-04  1.7781548802510108e-05  1.9388504131184156e-03  3.0369451573229182e-03  4.7483606531183609e-04  1.4290412425834543e-04  3.0440145740942598e-03  5.6830512991361487e-04  1.2767390828847869e-04  1.9045341494808513e-04  4.2941571118820365e-03  1.3614203231854768e-03  9.1992182080788496e-04  1.3671503712494721e-03  4.7361179766007013e-04  1.0884981442709431e-03  1.2229590587140672e-04  8.2733915811278818e-05  8.0410319929918127e-06  7.1901276185253331e-04  5.6144178563891646e-06  5.6449935041690761e-04  6.2302931836161397e-04  9.4585450863740811e-04  5.8452669905711397e-05  5.4257856136952155e-04  5.6740280178036413e-05  7.2737488999984444e-05  2.6836262983030094e-04  4.9582902073445527e-03  2.6735085377741549e-05  1.8827307653712433e-04  2.8505931735363501e-05  5.3093192970804861e-04  3.1339983469863954e-04  5.9784294235352807e-05  2.2244632805467819e-03  2.1902929310650312e-05  1.9396183483592371e-04  9.1265346826460781e-05  3.1956300970057170e-04  4.8568092437409685e-03  4.2898560447418869e-06  3.5063895011850163e-04  7.0598841302213879e-05  1.2793610151943218e-03  5.9248265068349306e-04  5.5295582509616014e-05  1.9878207473101862e-06  8.3370058365346306e-04  4.2737700863499043e-03  2.1167547887419457e-03  1.8402054246681036e-03  2.6237167312129256e-03  3.4060713528120533e-04  2.3325582593350814e-03  1.6605486684077434e-06  1.1249315044933915e-03  8.7614684894324182e-06  3.2420941030791334e-03  2.8724680280526387e-05  4.2323483110480990e-05  5.9132071891500188e-05  6.1401148769849663e-04  1.1940618775773105e-03  9.6405443840827973e-04  6.3535544259803308e-04  8.6292984117578302e-04  9.8261699440029058e-04  3.7481239461197374e-05  3.8560375509605598e-03  3.9971420868106997e-03  3.5827061717652912e-04  1.8998662154463390e-03  1.8414055764020814e-03  8.0395180239657541e-04  8.7781416486066254e-04  2.0198785062713355e-04  2.8353985086085817e-03  8.7793118556698507e-05  7.5748430021167854e-04  6.4711096380886985e-04  2.9746053001916646e-04  1.7625193056777813e-04  1.9733234431829589e-06  4.6808002599253071e-05  7.9921822112343833e-04  9.9648571944769529e-04  1.8196074324124386e-04  3.2934951398481878e-04  1.0396327886278460e-04  2.1323051035163125e-04  8.7009234931373141e-04  5.0007831713899014e-04  4.2345431225061176e-03  2.1081669898115347e-03  3.9019539791048323e-06  3.0409201452748095e-03  1.3334791609264185e-03  4.4175184923410417e-03  1.2025226949621626e-03  2.5677398378585282e-04  4.4395660304340128e-03  3.1702033411161864e-03  3.5783491388008356e-03  4.4853979707062059e-03  1.0971533337181701e-04  3.8898894804695420e-05  2.2804335205136275e-06  3.9697386164500589e-06  1.6613352457019387e-06  4.6170334483793073e-05  8.2129201878092435e-05  1.2779480906392940e-05  2.5145357116568377e-03  1.7168287688256424e-03  1.2283996803878083e-04  8.9514165525073070e-05  7.1453337657802110e-04  2.0456952375746025e-03  2.4086332503709942e-03  2.6221602967357433e-03  4.5018421219676424e-03  1.5388559502152637e-03  4.5940745069987071e-04  5.6333654963027619e-04  4.0701901853936335e-04  5.6606154937748618e-04  4.2016438203398852e-05  5.7127124949156609e-05  2.0666337034131541e-03  3.5992348642602656e-03  5.3271018666832233e-03  1.2988222096877024e-03  2.0244404248512836e-05  5.0223112484276194e-03  2.8037629323083972e-03  2.7970918550824946e-05  2.9014043846127017e-03  2.1684693639564002e-06  1.5265814665889931e-04  9.9187736024760207e-05  2.9189626159041235e-04  1.8466626209607328e-04  1.0388354692498967e-04  5.3077562084739118e-05  3.8912420506879191e-05  6.4381057182610608e-04  2.8048235746875522e-05  3.4159833456055347e-05  5.4225051067350290e-03  6.7332732135074813e-03  4.7500198082567624e-05  7.7816334041869129e-06  1.4943724235246875e-04  7.6385649157361096e-04  5.0209611352508956e-04  6.1005087586870211e-04  5.4216749605333488e-04  2.5105248745895814e-03  6.3141610343235013e-04  1.5092746323003449e-04  5.1696812358737273e-05  5.5790777975250972e-05  3.1486864608966307e-05  1.6657498880172524e-05  7.2789237938148931e-05  2.7456880087312844e-03  9.6137632004855044e-05  2.2454592075966773e-03  2.4455951699029469e-04  3.2473545011642589e-04  6.0407127183995134e-04  2.6729140768872598e-03  4.4872660701207271e-03  9.0430433194271659e-05  4.9498968843660002e-03  6.1615114868844665e-04  1.9191023845687421e-03  2.7147343076797342e-04  3.3755302116350111e-04  2.3930096213439