<?xml version="1.0"?>
<VTKFile type="UnstructuredGrid"  version="0.1"  >
<UnstructuredGrid>
<Piece  NumberOfPoints="2446" NumberOfCells="4585">
<Points>
<DataArray  type="Float64"  NumberOfComponents="3"  format="ascii">0 0.41 0  0 0 0  2.2 0 0  2.2 0.41 0  0.2404508497187474 0.2293892626146237 0  0.25 0.2 0  0.2404508497187474 0.1706107373853764 0  0.2154508497187474 0.1524471741852423 0  0.1845491502812526 0.1524471741852423 0  0.1595491502812526 0.1706107373853764 0  0.15 0.2 0  0.1595491502812526 0.2293892626146237 0  0.1845491502812527 0.2475528258147577 0  0.2154508497187474 0.2475528258147577 0  1.1 0 0  1.1 0.41 0  0 0.205 0  0.55 0 0  0.55 0.41 0  0.275 0 0  0.275 0.41 0  1.65 0.41 0  1.65 0 0  0.8250000000000001 0.41 0  0.8250000000000001 0 0  1.375 0 0  1.375 0.41 0  1.925 0 0  1.925 0.41 0  1.5125 0.205 0  1.7875 0.205 0  0.6875 0.205 0  0.9625000000000001 0.205 0  1.2375 0.205 0  2.2 0.205 0  0.4687002074688797 0.2068568464730291 0  1.99375 0.2152743902439024 0  2.0625 0 0  2.0625 0.41 0  2.2 0.3075 0  0.4125 0 0  0.4125 0.41 0  1.7875 0.41 0  1.375 0.1486128048780488 0  1.5125 0 0  1.7875 0 0  1.5125 0.41 0  0.8250000000000001 0.2613871951219511 0  0.9625000000000001 0.41 0  0.9625000000000001 0 0  0.6875 0.41 0  0.6875 0 0  0.1375 0 0  0.1375 0.41 0  1.2375 0 0  1.1 0.1486128048780487 0  1.2375 0.41 0  1.65 0.1486128048780487 0  1.126715909090909 0.2793064024390244 0  1.676715909090909 0.2793064024390244 0  0.8517159090909092 0.1306935975609756 0  1.348284090909091 0.2793064024390244 0  0.34375 0.3032389320646208 0  1.894702181800738 0.1282910975492754 0  2.092797818199262 0.1282910975492754 0  1.85625 0.3075 0  0.61875 0.3075 0  0.61875 0.1025 0  0.3648540804333487 0.1240075933101478 0  0 0.3075 0  0 0.1025 0  2.099172119769978 0.25625 0  0.48125 0.09238439620688085 0  0.5781001037344399 0.2059284232365146 0  0.48125 0.3196743479159776 0  0.7265881057911006 0.3055240343720796 0  1.99375 0.08395950269330846 0  1.459960956013612 0.3075 0  1.569025960719943 0.2986889805672169 0  0.75625 0.08213100772579164 0  1.03125 0.3278689922742084 0  0.923871252904788 0.3078247185783941 0  1.959375 0.3126371951219512 0  1.749222215368287 0.1025 0  1.275777784631713 0.1025 0  2.2 0.1025 0  1.225938124459196 0.3075 0  1.550777784631713 0.1025 0  1.000777784631713 0.1025 0  1.44375 0.07430640243902442 0  1.16875 0.07430640243902437 0  1.899250267340833 0.2229966846119207 0  0.1020898364287272 0.3140258291809757 0  1.766482954545455 0.2934032012195123 0  0.3405058858996321 0.2119987970531874 0  0.7710785630958338 0.1710968191298857 0  1.046078563095834 0.2389031808701144 0  0.2 0.3400647632937836 0  1.421109702350723 0.2261157654379721 0  0.2800464974185557 0.08982544815605742 0  0.098916018031319 0.09171660955420841 0  2.13125 0 0  2.118919042110979 0.3422084711244843 0  1.30625 0.41 0  0.89375 0 0  1.597888256393107 0.2173787389261347 0  0.20625 0 0  1.829299675393195 0.07400700849299596 0  1.71875 0.41 0  1.16875 0.41 0  2.038220665644273 0.332420740103091 0  0.34375 0 0  0.417496017710808 0.2696595573092803 0  0.2 0.07687845740457822 0  0.9295982307099278 0.1343158415898188 0  0.07390688010811153 0.1697064032433452 0  0.5238366813727013 0.2578302467013575 0  0.05452951551825875 0.25625 0  0.5229630068078351 0.1548816096928243 0  1.452769549894695 0.1548122580621249 0  1.369219062229598 0.07430640243902442 0  1.30625 0 0  0.8504409521244898 0.3356935975609756 0  0.8821881244591965 0.205 0  1.720943423819132 0.1714577452753128 0  1.157188124459196 0.205 0  1.094219062229598 0.07430640243902437 0  1.03125 0 0  1.304056576180868 0.1714577452753128 0  1.67579304192913 0.07430640243902437 0  0.2751941921308361 0.3346083473122598 0  1.209670467133757 0.1362100266964769 0  1.025335513626278 0.1700681449722324 0  0.7562500000000001 0.41 0  1.58125 0 0  0.7567170593862014 0.2409196493502535 0  0.6926714215682891 0.1272249611432207 0  0.4139715849905988 0.3397932387114203 0  0.9840787304190477 0.2717749043358119 0  0.06875000000000001 0.41 0  0 0.35875 0  0.9281250000000001 0.06276726142697993 0  0.5507396469029935 0.3219409231578227 0  0.5504468037989405 0.09136885600634273 0  1.58125 0.41 0  1.631724228912893 0.3381867502687533 0  1.825608881788174 0.14499488549201 0  1.85625 0 0  1.44375 0 0  1.44375 0.41 0  1.85625 0.41 0  2.13125 0.41 0  0.7562500000000001 0 0  0.89375 0.41 0  0.4812500000000001 0 0  0.34375 0.41 0  0.4812500000000001 0.41 0  0.20625 0.41 0  0.06875000000000001 0 0  1.16875 0 0  0.61875 0 0  0.61875 0.41 0  1.03125 0.41 0  1.71875 0 0  1.99375 0 0  1.99375 0.41 0  1.340625 0.3489494290853124 0  1.134375 0.3489494290853123 0  1.700180620188976 0.3438659752031281 0  2.135782184673599 0.07126652247502523 0  1.668441847249787 0.2129203728327609 0  1.295782514339747 0.2378437748815763 0  0.8233075729931248 0.06842334294821524 0  1.409375 0.3520314716057996 0  0.403505597322782 0.182067236678212 0  0.378125 0.05794951541303489 0  0.3043468223249023 0.1518321115979534 0  2.129248544730567 0.1906135162504124 0  2.060771381434487 0.1989445750470348 0  2.013252586573865 0.1496169464686054 0  1.942766402200229 0.1734448904596831 0  1.895522487186454 0.06076163953489683 0  2.069553871656643 0.06605731020975725 0  1.274680914880868 0.3520219391081363 0  1.614713220494657 0.09473434380863296 0  0.7899021319497519 0.3149123934144827 0  0.69518737419149 0.0634051089053758 0  0.2971740475496061 0.2592172353407536 0  1.72990325744076 0.2380068107952482 0  1.356580098625191 0.2120393231351682 0  2.034370752044885 0.2668681600792073 0  1.51768709249349 0.3426260931494756 0  1.561883724969884 0.1650446847858835 0  1.197344062229598 0.2523725417393646 0  1.804085235518364 0.3468178408964637 0  1.817887819205233 0.2589243285818559 0  1.905897727272727 0.3485060975609756 0  0.6719798073392919 0.2688965171178177 0  0 0.05125 0  0.653125 0.35875 0  0.6396896119294488 0.1627615407790282 0  0.4274150154087412 0.1242548552168279 0  1.192836486056382 0.3562350748565544 0  0.8279124365364005 0.183856489168822 0  1.097485222388854 0.2083571153401724 0  1.28257088594801 0.2944411014911587 0  1.474860187679412 0.2504218616229368 0  1.406767003493824 0.2829282258560709 0  0.446875 0.04619219810344041 0  0.515625 0.04585361801037557 0  0.592043440706648 0.05125 0  1.845656689180403 0.1998310418452388 0  2.144958525570388 0.2909790873294231 0  0.6171090763650112 0.2492366900333857 0  2.2 0.15375 0  0.5145586920831158 0.3648371739579888 0  1.57794966442982 0.3540357145964566 0  0.721875 0.3633107922168974 0  0.0496154796471391 0.333125 0  0.5843750000000001 0.3662560860076676 0  0.5810878747760798 0.1474002776121195 0  1.508991196088596 0.1421783375065625 0  0.8840670607017558 0.2640994375393898 0  0.09776612425612034 0.2204896805326566 0  1.50436820029908 0.06143401634903343 0  1.223857000523521 0.0823554862453532 0  1.153316824384777 0.1289850171317837 0  2.148922302309752 0.1258841779285271 0  0.309375 0.04312325590431198 0  1.621993280276081 0.2841214267927899 0  1.550118654119087 0.2461998729100966 0  1.327182649291491 0.1216967252533594 0  1.051977450479407 0.1221382572915816 0  1.753125 0.04556020050186112 0  1.271875 0.04556020050186116 0  0.9816084133102366 0.05126138213476004 0  1.039051841454368 0.0572224914831029 0  0.9719230514536006 0.3480477870845102 0  1.94956388244759 0.1180512551534177 0  1.949997712993411 0.04965831614304109 0  1.771961817615021 0.1530278789497521 0  1.909246823951428 0.2812757146784527 0  0.2459536687882397 0.04668633953831142 0  1.948575539857022 0.2445328248721197 0  1.697271520964565 0.1233917627620729 0  0.7964897648514618 0.1211426571931604 0  1.065625 0.3689344961371042 0  1.085849084308977 0.3170853572226867 0  0.4702981435440001 0.260434880697798 0  1.577403511714593 0.05463601888079143 0  0.05622663515370135 0.05493816910862376 0  0.3267207591099919 0.3566194660323104 0  0.9003051618565143 0.3564049499960621 0  1.751571320346033 0.3651102912045228 0  0.1583785085108421 0.2994699345738728 0  0.1455283439499995 0.3542795598723423 0  2.2 0.35875 0  0.2347662494194072 0.298325008655211 0  0.1527284455616188 0.1065771775690181 0  0.1382139529076665 0.05427454456341477 0  0.8749341636311069 0.05110114999892954 0  0.643661668713109 0.05693499781019222 0  1.466879772203159 0.3611261772912453 0  1.990280163552011 0.3564754268533217 0  1.17471064520912 0.2990917256188288 0  0.5202693090594349 0.206382495511728 0  0 0.25625 0  2.2 0.25625 0  2.2 0.05125 0  0 0.15375 0  1.853978576207987 0.35875 0  0.9787513713939683 0.1487523696999336 0  0.240625 0.3722153812029779 0  1.515638456102889 0.2882700110184686 0  0.09048297387599738 0.3637717362208066 0  2.150453692751374 0.2387066338105111 0  1.323782677156475 0.04897634338873398 0  0.8074131292871642 0.3624701995505916 0  1.409375 0.03715320121951221 0  1.406484531114799 0.1087852750766809 0  1.134375 0.03715320121951218 0  1.627401732573545 0.04552157221025036 0  0.1170173172005315 0.1427610859166811 0  2.045405893604797 0.1105340662939892 0  1.255408269734577 0.1577307500159216 0  2.028125 0.03707597992059326 0  0.4743610090857199 0.1421513964721819 0  0.9354010469015898 0.250631300585664 0  0.04420832937638274 0.128125 0  0.8922386349349938 0.0992956419364831 0  0.1197849154434487 0.2663398672460083 0  1.248258025468107 0.2565907092181813 0  0.3746885856929528 0.370723531618974 0  1.203125 0.0366132337404304 0  0.5724622277005015 0.2751253816079333 0  0.3365425205162783 0.08395777655057959 0  2.072662025974815 0.2975086504196739 0  0.4581080832182547 0.3648371739579888 0  0.3874522734668214 0.2295447548840689 0  0.7827853612484443 0.04106550386289586 0  1.887722846421017 0.1760882698830035 0  1.472640588990488 0.1118278026240017 0  1.865937103925594 0.2604137786483804 0  1.463913572748262 0.2030442564990043 0  1.376426316059077 0.3186741374914345 0  0.6641993820150034 0.3141688596240831 0  0.2943117490824315 0.2130987422685822 0  0.3478153998082709 0.1666571081082676 0  0.3427990510599805 0.2575950027870776 0  0.7997118993855807 0.2216171933356366 0  
[...]
<PointData  Scalars="f_10-0"> 
<DataArray  type="Float64"  Name="f_10-0"  format="ascii">6.7569986606502203e-06  5.1466208845822061e-04  2.1060155216776414e-10  1.2326704923433091e-10  7.4019262346000159e-04  1.4273269648344474e-03  1.9616168992079202e-03  2.1105575161950874e-03  1.4446826803882385e-03  6.0862566258095409e-04  2.2846150425813078e-04  1.3141367549380579e-04  9.6739129696860250e-05  1.8058078823634448e-04  1.2371875204079030e-03  1.4017466088387474e-04  8.5537334787419634e-05  4.2361635385200847e-03  3.2875197381168904e-05  4.8881655047479447e-03  1.1475835083668661e-05  1.9114327764452258e-06  5.1544168259684057e-06  1.0508785408685699e-04  3.0613654687846126e-03  1.5677232456508204e-04  3.6282465527523149e-05  5.1782385936205201e-08  2.3666171873421018e-08  1.1053891241143000e-04  3.3125062036123733e-06  1.7765373107365698e-03  1.6404029926133758e-03  8.4558422470403503e-04  1.8162915360605525e-09  1.3704508615022162e-03  9.5903909040369640e-08  3.3405587108100126e-09  1.6289710565626640e-09  9.2502628961119128e-10  4.6845447416776912e-03  1.7860029648921246e-05  2.3693995885367465e-07  4.3826972024844067e-04  3.4242808898163094e-05  5.6899898963755038e-07  9.9821108495639609e-06  8.2478175994694794e-04  1.4602958919804029e-04  2.1828094382355255e-03  5.9280877978371708e-05  3.7119650152798935e-03  3.3407109423092742e-03  7.9338208638058139e-06  5.2540439484045497e-04  1.7981503200340707e-03  8.8732230007420855e-05  2.4863127678555139e-05  6.2723641745409385e-04  1.0089530724821766e-05  2.8963137606089276e-03  2.5241915079917548e-04  1.3028464664860851e-04  5.6484763971657631e-07  1.3471102860682509e-08  5.4833768197072602e-07  1.4506741245942669e-04  3.9164929988876294e-03  3.0293931879756463e-03  2.0451779208422816e-05  2.3407717659960561e-04  1.0308552844861018e-08  4.1236026642444317e-03  1.7845964881320661e-03  7.8962586579865891e-05  2.8808480694028112e-04  6.7898575731489843e-08  8.0217322871470887e-05  3.0358547523089645e-05  3.5826880774366189e-03  3.5163102614548561e-04  4.4417692503755736e-04  8.9483281022299196e-08  5.2531636942133242e-06  8.3598198411077081e-04  1.4227921256561882e-09  3.3873787796448804e-04  7.3356374725188169e-05  2.4765420889360430e-03  1.8777869431999930e-04  1.3525272847313612e-03  5.0596579700433673e-07  2.1517910794519669e-05  2.5539437383502810e-06  1.2074528397197765e-03  2.4553777092189547e-03  1.1036995502154347e-03  2.1706828640009598e-05  2.2936480535555148e-04  4.0797988972060646e-03  4.8169000499567868e-03  6.9894977937468403e-10  2.6452429272580562e-09  5.9960937458098462e-05  2.6436442614240891e-03  4.0936134258864472e-05  4.6066061364676307e-03  1.1240725958597600e-06  7.4033666186276175e-07  1.1792499242221851e-04  1.5352646305432383e-08  4.8357419177751217e-03  3.2628649884623050e-04  5.4547507902602691e-03  2.6116525878834436e-03  1.6255946380570814e-04  3.4731389862444637e-04  4.4085278346195385e-05  3.2222847520942404e-03  2.2515600247962773e-04  3.6718546792820770e-04  2.9249603298128768e-04  2.3845725912177831e-04  1.7136662981794141e-03  9.3966388353147324e-06  1.1565006567251816e-03  1.8387581653459243e-03  1.7133451860938250e-03  6.8664829567051584e-04  1.1792637920812726e-05  3.2123010439899322e-05  1.2316347783799760e-03  1.9370916030245480e-03  7.9757641838587394e-05  1.4169383762823687e-05  1.0538279912287029e-03  3.4180063196717504e-03  4.4936721921609960e-05  7.7979432290998542e-04  6.9647630747408407e-06  9.8305384702346376e-06  2.8025928180567291e-03  8.1283729873566100e-05  4.1304924321499724e-03  4.5392342553500837e-06  8.7956214538172580e-06  1.9036676502139432e-06  1.7373504309660907e-07  7.3509284643468427e-05  2.0454763379341860e-05  8.2801951836027405e-08  3.9470159132169751e-10  3.4087484816291060e-03  1.2734268727976691e-04  4.4908865026798347e-03  1.3892483310415721e-05  2.4288447107894591e-05  9.2978638625628881e-06  1.2120332013618332e-03  8.4989058066161239e-04  3.9740116838724001e-03  4.3947623468619984e-05  1.4887914826478167e-04  1.7881329178130434e-06  1.2424853360181118e-08  6.7736858278357533e-09  1.0814426623826262e-04  2.4301341486848680e-04  3.3094160796872927e-06  3.2169343560017203e-09  1.7367923800387951e-05  5.0090471599690319e-04  3.3361687633356317e-03  6.4259886774925960e-05  1.8560444856915265e-03  4.5551893437028312e-03  2.1847463602996699e-03  7.0216206572031829e-09  2.7619666967796143e-08  6.9402861576238263e-08  2.6315212619280128e-07  2.9795059272672861e-07  1.1702508088387800e-08  1.4852106069348787e-04  3.2283570054983045e-05  2.9574122575222759e-04  3.8254934453914612e-03  5.4632296031283762e-04  6.6461320327767224e-06  4.0598541569919537e-04  3.4156894778971427e-08  2.8793581997484165e-05  7.2632241076271391e-05  6.9027181553042022e-04  6.9910180133299806e-07  1.5587598056873249e-06  1.2893687051972667e-07  4.9098445498793023e-04  3.7773001545736716e-04  6.9336941226492635e-05  2.9951499050501133e-03  3.3321875423064215e-03  1.9104719532432932e-04  2.1289441539750504e-03  1.3256890012541694e-03  3.1072498617124500e-04  1.2132611753445779e-04  1.6179013328134818e-04  4.5520719075566127e-03  4.3902934522262842e-03  4.1637562896719273e-03  1.3265434949660311e-06  3.0917590130724499e-09  6.4888091036657900e-04  1.8098849706784105e-09  3.5414509060171604e-05  1.2455332227944184e-05  9.2747100356732878e-05  1.4459556463244053e-05  4.6282245461411994e-05  3.4280006719619206e-03  1.2986139554437446e-04  8.3961615795917878e-04  7.7800264249374071e-05  8.6759500658179615e-05  1.0577974528547206e-03  1.5726420520454554e-03  4.1633318273735179e-09  4.8532257650210015e-03  1.9234451640743250e-05  5.9080652492815478e-05  6.1960932489406122e-04  2.1642181478308980e-03  2.3811713391088684e-06  5.9738230416158072e-04  2.4157412420567001e-03  2.0850641713292093e-03  2.5026218164150805e-04  2.0342024387927966e-07  8.8191742859402014e-08  4.4557946430952843e-06  2.9535454586324143e-07  5.0721599827170663e-03  1.9144635745886419e-07  1.2436954131688208e-05  3.1652140144144067e-03  1.9844085098920524e-04  4.0658465543117020e-04  3.2693879981579452e-04  3.3512254398728131e-05  1.0048813275742819e-03  2.3174174461019899e-05  1.9254021505525417e-04  1.0329151489467196e-06  3.8032195284136922e-05  1.3417719437701466e-05  3.8561985266174072e-10  5.9422688697677257e-05  5.4377089224092187e-03  5.4059011778204028e-03  3.0379935738355421e-03  4.0016950345961831e-03  3.3837620173232208e-05  2.4221917343667856e-08  4.4193813881638618e-04  1.6085785642503281e-03  4.2921120676008192e-05  1.4559455975903476e-09  6.6430880636218212e-10  1.5944071817681495e-04  2.5087093920128964e-07  2.3085595824792796e-03  1.3955854929369751e-05  5.8842346678550305e-05  1.0107849621832485e-05  3.9372253960152996e-09  4.1903593318279314e-04  1.3391379186372489e-04  1.6704219303153019e-04  3.2355483958101109e-04  1.2679885920369866e-03  1.5008397676760536e-05  2.6042488586116457e-03  3.1693073802962820e-08  9.4431556924782503e-04  1.4405043769293677e-08  3.2460943239057743e-03  1.0240207623445150e-03  3.7397990382411964e-04  2.9947527293446349e-03  4.7565985305494627e-05  5.4160170883008215e-04  2.0046572394940075e-05  8.6265267125891216e-04  2.5181456328353391e-04  4.1177683721896220e-03  1.2476399083471305e-08  2.9257364789665334e-05  8.2511398161956020e-04  3.4394461005460672e-03  6.9305005741044450e-07  1.7630667169340192e-04  7.1830385223156395e-07  1.7842141135723276e-04  1.3303639404902353e-04  1.6520473859255014e-04  1.2648567556821438e-03  1.9719417384044162e-03  5.8649509517132408e-04  1.4295228198674789e-03  5.3162579658581411e-06  3.2983347003157526e-06  2.9833749297611732e-09  2.6206554229747043e-03  3.2922324356735354e-03  1.2682810629008358e-03  6.7723103357657222e-04  8.9643802822277335e-04  3.4025700770997502e-04  2.6266916691457128e-03  3.4153842542871915e-09  4.4753167157134966e-05  1.6864316423374063e-03  9.2716057754499469e-04  1.1638280604427593e-06  8.0755634108611561e-05  8.1599558491169327e-08  1.2738442806113138e-09  8.0712595516668078e-10  3.9623967037130534e-09  2.6023072559072146e-03  3.6399603468267199e-03  2.9655048157799996e-06  2.8345635424823730e-06  4.2741303326018957e-08  4.1458793735788509e-03  2.6701072811089556e-04  1.1428381787070856e-03  5.0951937167147970e-05  3.0287470476434293e-05  6.8780175083211411e-06  1.1612318406116277e-04  3.0210088988054812e-06  4.6233961242894129e-06  1.4989690268291353e-04  1.9842278480958041e-04  8.6164450019460181e-10  4.9708273827456195e-10  6.7551302423718425e-06  3.8271213922433022e-03  1.0635920623684478e-04  2.0525753500040106e-03  2.4152515369445719e-03  2.2913162573431655e-05  1.1207757696207509e-06  7.3111197502854417e-07  2.2331002949489838e-05  3.8806102293407557e-08  9.9721316053478213e-04  3.3361696182751329e-03  1.3924015324384691e-07  1.6365856503074260e-03  2.8226916238520676e-06  3.2949064588411587e-06  2.6872157026746574e-03  4.2198184223877656e-03  8.6075536209747734e-06  3.0218652020146443e-08  1.3930032988397750e-04  7.1505174778672682e-05  1.3928908161725610e-04  1.4501246900057082e-08  9.6472409710818678e-05  4.9387689182046864e-03  1.7227817170709652e-03  2.3562587324089238e-03  3.4946183923262221e-05  6.3731120240529781e-04  1.3824660347562081e-04  1.1623581425024479e-04  1.8293217373249028e-03  1.6851267622670718e-03  1.2165177057535956e-03  9.7371997140152167e-04  1.5024418701330869e-03  2.5688364702679110e-04  3.6414707789838301e-09  2.0575827230456920e-04  3.7372588883587628e-08  5.0473064675627527e-04  4.4382966939709221e-08  4.0026186877138995e-07  9.6221609350263950e-08  2.2690615291947677e-07  1.1331928079326561e-04  7.9600044816490098e-06  7.3590233881379545e-06  2.1171487218647864e-05  6.5006131337095371e-04  3.3920997405310286e-04  1.0285410294437902e-04  8.6056428572804867e-06  6.8173998319342803e-09  3.1882560389676388e-04  2.7943806945736486e-03  4.3863373383011274e-04  2.5734162072645555e-05  4.2742426227983512e-03  4.6958103320323780e-05  2.6571790433444299e-06  3.6523095465762394e-03  1.7572995315330610e-04  1.0771954540030659e-04  1.5399491826604606e-04  1.2911078996533212e-04  6.8959476186594812e-04  3.1751888337864199e-03  2.8316635975070594e-08  1.3230709647930473e-04  1.5582650867076714e-05  1.1535731959188616e-05  8.4335041821446776e-05  1.2578330380964018e-05  2.7024958467661091e-03  2.4726543773045274e-03  3.7572134089147646e-03  2.7854413014731334e-03  3.0128329171319004e-03  1.7012978112867811e-04  9.0841357416638518e-04  1.4454833218641573e-04  2.9817011551949707e-05  4.2566250829474716e-05  6.0421319570204744e-06  7.0206091543882317e-04  7.7778963839665923e-06  7.8521999739100191e-04  4.4414318726671139e-04  2.6175944056976581e-04  1.9743828655730427e-03  1.5502469370106131e-05  5.6619971982265285e-04  1.4689997885284108e-07  2.0029824495656854e-03  4.3191032207458699e-05  1.3175017552947037e-03  1.0393474425131480e-03  1.9033712299423380e-03  2.7977913533831864e-05  1.7146765819426322e-05  7.3556134672986877e-06  4.2311228229170603e-04  3.4415869145745905e-03  2.9822245977359361e-04  3.2595990226459129e-04  6.8641284076985040e-04  4.5799516859070573e-06  4.7965317505104801e-05  1.3289248417804001e-05  3.5236250559198701e-03  3.1938278857961109e-07  1.6640819221984323e-04  2.3156562807408180e-08  4.8272998564877879e-08  6.2022440932915678e-04  1.7624404842584861e-03  6.4693794067954451e-09  8.2825302601679411e-09  3.3638863462558101e-09  1.5230211547410981e-06  5.9594864669227920e-05  1.5131759305555285e-03  2.2796735985720611e-03  1.8867912166510093e-03  3.8533529827718249e-03  2.5875371341404309e-04  2.4429233364673747e-04  2.4739891908248332e-03  2.7455133784233090e-03  2.8564932910268245e-03  3.1227466450377624e-03  2.3468296118687375e-09  6.6509094883463094e-09  2.0342172758929366e-03  1.9283390614201214e-07  1.4365459658378652e-09  5.5670097879088117e-04  9.0574920497930660e-04  1.5155702839443448e-03  1.0622596110191375e-06  2.7952097315978026e-06  7.3826805780958333e-04  4.7137700132388813e-03  2.2179320527353522e-05  2.8412606300194129e-03  1.6138039666813910e-03  5.2985469384892370e-04  2.6575260442697778e-03  1.6125795835077525e-04  1.3057642808267467e-04  9.1048345345795661e-05  4.5752545500040272e-05  6.0910478025981461e-05  3.9921344270736343e-04  2.5499805571313960e-04  8.0069773718845375e-09  1.0205009194494367e-04  9.2445945793906829e-05  4.4362224040990058e-05  1.4149770453718222e-03  2.6613994784797433e-03  4.6539251508318667e-03  4.7672050889441923e-03  6.5098877852702659e-05  1.4953268929976748e-04  8.0098984204486780e-05  7.4104899345050465e-05  1.2177108602610740e-06  6.7696485047720391e-04  1.1655274049808006e-03  4.2355566446168405e-03  3.7248256354349041e-03  3.9334483338795663e-03  1.0550846694229598e-04  1.1405437510048629e-06  1.0454999155908942e-07  5.2661180634668316e-08  1.2349366845967051e-07  7.2501848752559150e-05  1.6571926246464660e-04  1.0354529470142772e-03  4.4989373397265825e-03  2.1821107163478136e-04  1.4761855959602240e-03  3.3184086690679994e-10  1.4554409181457608e-09  1.0328834942109277e-03  1.1079743870166499e-04  1.4531124192106142e-05  4.3481547539306783e-07  1.4664130527582245e-04  1.0854785987081736e-06  6.9283956196304340e-05  2.6866310606511719e-05  3.5687334222788874e-03  1.9995940242521776e-10  2.4256381178503167e-03  1.5560069892973513e-05  4.5955208848683570e-03  2.0659984168492975e-05  2.2409922324695478e-03  1.0345376246577392e-05  4.8085474208658333e-03  7.3377057803147882e-06  3.8428522479759366e-03  3.2393831002167162e-03  4.8865340591740533e-03  3.7774243379715993e-05  2.8223784172268739e-05  4.1030731831966042e-03  4.3682667420569584e-03  5.0083471477329171e-05  1.9569528965534921e-03  6.6366937999607137e-04  8.5690258014735714e-06  2.5042378751645104e-08  3.9608508662695372e-04  6.3728250848738650e-09  1.2178429196296366e-08  1.3735590120214251e-06  6.3618549059497249e-08  3.4712559642670793e-03  2.5054570624345583e-04  1.3820593249809861e-03  3.8973203553179354e-03  3.8206186321414264e-04  3.3490803879453147e-04  2.8731272117087829e-04  3.4852296348579720e-05  5.2731325590956825e-05  1.2000721100172363e-07  7.4095396952960236e-05  6.2840012949456396e-05  3.3282910549709475e-05  8.7903568444559505e-06  2.7966892024159568e-07  1.0628845023285463e-05  4.6004882314037163e-03  1.0637186244103266e-03  1.5720132504599596e-06  1.4534698356926070e-05  5.5657670359540615e-04  1.6568434369642209e-07  1.7649438782937796e-05  3.3583104632053733e-04  6.4427824746291157e-04  1.7019734994961976e-04  6.1275729563167581e-05  7.4658105091652153e-05  1.6168757471880973e-05  5.0446271131112730e-05  6.6553078698027506e-09  1.2052766888903326e-08  2.2871241450712126e-03  6.6134901994921639e-05  4.4697113559408305e-04  4.8707416764531976e-05  2.1644723211761805e-04  3.5091364303435025e-07  4.3149713472406181e-07  9.0131843079615318e-06  6.3808072389724474e-09  5.9025742939869622e-03  2.6785406989989597e-04  4.6269626720984953e-04  1.1832726281649044e-03  2.3404896709588511e-08  3.2582191525561459e-07  1.3952318565333404e-03  5.6776501636122200e-07  5.9234538715040085e-06  1.2210992918460636e-06  1.1937687459285476e-07  2.3138553529560038e-09  3.9952847640184050e-03  2.1060178783611602e-03  6.5277491296779049e-05  3.1753101513387998e-03  2.8209603720420219e-04  4.6629433654787349e-05  1.9120239111326411e-05  2.3397011035340642e-03  5.6560217436054604e-08  9.2589445375957779e-04  8.1948913850989035e-06  8.8040315923100033e-04  2.9757985228344060e-03  4.2859868175226827e-03  3.5386333042292167e-03  5.9596984464079941e-06  1.7696293129190195e-03  9.7086503114406593e-05  4.8854948498489080e-03  5.0913646192197158e-04  2.5951893281738756e-03  3.7098632466545643e-03  1.4316862952391122e-03  9.7815568698137104e-08  2.2819630254077952e-04  8.5033844331347122e-08  1.0241795752748684e-03  2.7458099555174825e-03  2.4114580242499929e-05  2.1040017085819370e-06  2.0659066465188512e-03  3.1334913287192840e-04  8.9640157854324314e-05  4.3618564222742170e-06  4.0372017659757583e-03  6.5522973817908135e-04  5.0388833539006877e-04  8.9055597217560707e-04  2.0567776642152263e-05  1.3220520207305237e-04  1.9622088486220457e-06  9.6370660274337623e-07  1.4438948015416934e-08  5.6367662814445552e-05  1.5618708600471340e-08  4.7056292636107411e-04  5.3005420511872253e-04  9.2124708889665584e-05  4.1682933495785019e-07  2.0114865840718631e-04  3.2558854311235743e-05  5.4162168541831961e-05  2.0531254762245354e-05  4.8712725045660177e-03  1.3347781478759504e-05  1.6046967973891367e-04  1.1567306697342587e-07  4.8667665769448911e-04  6.2850098312450557e-05  3.8859090994029452e-05  8.3867655814739951e-04  1.5939914413375204e-07  1.4481973828111137e-04  5.7280870278678021e-05  2.8144126142503234e-04  4.7739787213940529e-03  6.4927999838106872e-09  3.1674160104178047e-04  6.8908151458648737e-07  7.0459898252923068e-04  3.1208888555779312e-05  4.6858894991582768e-07  1.6552215107671268e-09  6.3567985915369209e-04  4.1553702197833879e-03  1.6011399106373436e-03  1.3262757780025606e-03  2.4609568962800075e-03  1.5886778965956693e-05  2.2571229901282301e-03  1.5317533762064887e-09  9.6827753638338836e-04  1.8814452263296672e-08  2.3669408559948229e-03  1.4403285914025585e-05  2.3075171372250522e-05  4.5512583787917712e-07  5.5657329486820644e-04  3.0094116084369697e-04  1.7202447668720569e-04  9.5539738615792099e-05  1.1794270478485066e-04  1.1018544846208323e-04  3.0582403611335990e-07  3.2373032918492427e-03  3.7257624764041038e-03  2.8469121417738237e-04  1.8160262983592499e-03  1.7360835372044023e-03  2.1299915302363796e-04  1.8730664908617049e-04  1.7310095982934055e-04  1.5391009093645841e-03  8.0326160375978617e-07  6.8281325279230651e-04  6.0570984903171967e-04  2.6678331682358921e-04  1.5078412896492207e-04  1.6364622456470262e-09  2.6458004026315492e-05  3.8415295769051941e-04  4.3748900834120479e-04  1.4846168630010500e-04  9.0353678991590268e-05  7.9457149404026350e-05  4.6600057451727670e-06  8.0869421724307357e-04  3.4364581180957226e-04  4.0777539475586209e-03  2.0370014503926790e-03  8.6498473903037515e-09  1.7901456386707974e-03  1.2584598169500733e-03  4.3054402577548043e-03  1.7322335491153838e-04  1.1909334906047543e-05  4.3588755888422882e-03  3.0269368587891626e-03  3.3873799344565640e-03  4.3958758137845177e-03  7.6750702568479639e-05  4.5392162786355364e-07  2.6623344925335696e-09  5.2389557014010328e-09  1.5396838369425410e-09  3.1841698036071845e-05  7.6564626593948165e-07  4.4899417412542031e-08  2.0081478664899111e-03  4.0574804078879058e-04  1.9170712107679084e-06  1.0886324358103741e-06  4.7208998654592424e-05  1.9694054369207982e-03  1.4007392994642557e-03  1.5001860896888812e-03  4.4302770713820858e-03  5.1496474064695026e-04  2.1903281632938777e-04  4.4392481805309174e-04  2.9641624286212004e-04  5.2141614294735265e-04  2.8058966989906220e-05  4.0950583626440883e-05  6.7873843632221752e-04  3.5136894638675017e-03  5.2468323116730093e-03  1.2060849857540678e-03  9.2536549040089861e-06  4.9376963472732285e-03  1.5668868749232764e-03  1.4734448708975380e-05  2.7903373193258088e-03  1.8173380080174082e-09  1.0671070293090859e-04  6.2992902564504806e-05  2.0096811604200924e-05  9.0474034109271151e-06  7.1315354319337126e-05  3.3462080685171214e-07  2.0848319148607367e-05  5.9487727265936411e-04  1.4034726783930457e-05  1.7808321427236230e-05  5.3544810709764638e-03  6.6557705639191224e-03  2.6570959102351894e-07  1.4135569608427128e-08  1.2583639052004349e-04  8.2973777943998127e-05  4.1751987361885713e-05  4.8346238042081063e-05  1.5437594358739124e-04  1.1825457844582060e-03  3.7295246588872674e-05  2.1503533944797030e-06  3.6530180584861657e-05  7.8114532139860311e-07  1.6709047178034682e-07  6.5487538504367359e-08  5.2576919837279031e-05  2.6732600923291871e-03  2.0695284410231663e-06  2.1412299472612856e-03  5.1417946388397670e-06  1.3096614637276915e-04  1.1435485886941641e-04  2.4356818042294212e-03  4.3232727041101733e-03  8.1132981505606015e-07  4.8659728877592269e-03  2.7055819108730880e-04  1.8546226184591899e-03  2.3821392783188359e-04  1.1977148261680626e-05  1.1688321193884