<?xml version="1.0"?>
<VTKFile type="UnstructuredGrid"  version="0.1"  >
<UnstructuredGrid>
<Piece  NumberOfPoints="2446" NumberOfCells="4585">
<Points>
<DataArray  type="Float64"  NumberOfComponents="3"  format="ascii">0 0.41 0  0 0 0  2.2 0 0  2.2 0.41 0  0.2404508497187474 0.2293892626146237 0  0.25 0.2 0  0.2404508497187474 0.1706107373853764 0  0.2154508497187474 0.1524471741852423 0  0.1845491502812526 0.1524471741852423 0  0.1595491502812526 0.1706107373853764 0  0.15 0.2 0  0.1595491502812526 0.2293892626146237 0  0.1845491502812527 0.2475528258147577 0  0.2154508497187474 0.2475528258147577 0  1.1 0 0  1.1 0.41 0  0 0.205 0  0.55 0 0  0.55 0.41 0  0.275 0 0  0.275 0.41 0  1.65 0.41 0  1.65 0 0  0.8250000000000001 0.41 0  0.8250000000000001 0 0  1.375 0 0  1.375 0.41 0  1.925 0 0  1.925 0.41 0  1.5125 0.205 0  1.7875 0.205 0  0.6875 0.205 0  0.9625000000000001 0.205 0  1.2375 0.205 0  2.2 0.205 0  0.4687002074688797 0.2068568464730291 0  1.99375 0.2152743902439024 0  2.0625 0 0  2.0625 0.41 0  2.2 0.3075 0  0.4125 0 0  0.4125 0.41 0  1.7875 0.41 0  1.375 0.1486128048780488 0  1.5125 0 0  1.7875 0 0  1.5125 0.41 0  0.8250000000000001 0.2613871951219511 0  0.9625000000000001 0.41 0  0.9625000000000001 0 0  0.6875 0.41 0  0.6875 0 0  0.1375 0 0  0.1375 0.41 0  1.2375 0 0  1.1 0.1486128048780487 0  1.2375 0.41 0  1.65 0.1486128048780487 0  1.126715909090909 0.2793064024390244 0  1.676715909090909 0.2793064024390244 0  0.8517159090909092 0.1306935975609756 0  1.348284090909091 0.2793064024390244 0  0.34375 0.3032389320646208 0  1.894702181800738 0.1282910975492754 0  2.092797818199262 0.1282910975492754 0  1.85625 0.3075 0  0.61875 0.3075 0  0.61875 0.1025 0  0.3648540804333487 0.1240075933101478 0  0 0.3075 0  0 0.1025 0  2.099172119769978 0.25625 0  0.48125 0.09238439620688085 0  0.5781001037344399 0.2059284232365146 0  0.48125 0.3196743479159776 0  0.7265881057911006 0.3055240343720796 0  1.99375 0.08395950269330846 0  1.459960956013612 0.3075 0  1.569025960719943 0.2986889805672169 0  0.75625 0.08213100772579164 0  1.03125 0.3278689922742084 0  0.923871252904788 0.3078247185783941 0  1.959375 0.3126371951219512 0  1.749222215368287 0.1025 0  1.275777784631713 0.1025 0  2.2 0.1025 0  1.225938124459196 0.3075 0  1.550777784631713 0.1025 0  1.000777784631713 0.1025 0  1.44375 0.07430640243902442 0  1.16875 0.07430640243902437 0  1.899250267340833 0.2229966846119207 0  0.1020898364287272 0.3140258291809757 0  1.766482954545455 0.2934032012195123 0  0.3405058858996321 0.2119987970531874 0  0.7710785630958338 0.1710968191298857 0  1.046078563095834 0.2389031808701144 0  0.2 0.3400647632937836 0  1.421109702350723 0.2261157654379721 0  0.2800464974185557 0.08982544815605742 0  0.098916018031319 0.09171660955420841 0  2.13125 0 0  2.118919042110979 0.3422084711244843 0  1.30625 0.41 0  0.89375 0 0  1.597888256393107 0.2173787389261347 0  0.20625 0 0  1.829299675393195 0.07400700849299596 0  1.71875 0.41 0  1.16875 0.41 0  2.038220665644273 0.332420740103091 0  0.34375 0 0  0.417496017710808 0.2696595573092803 0  0.2 0.07687845740457822 0  0.9295982307099278 0.1343158415898188 0  0.07390688010811153 0.1697064032433452 0  0.5238366813727013 0.2578302467013575 0  0.05452951551825875 0.25625 0  0.5229630068078351 0.1548816096928243 0  1.452769549894695 0.1548122580621249 0  1.369219062229598 0.07430640243902442 0  1.30625 0 0  0.8504409521244898 0.3356935975609756 0  0.8821881244591965 0.205 0  1.720943423819132 0.1714577452753128 0  1.157188124459196 0.205 0  1.094219062229598 0.07430640243902437 0  1.03125 0 0  1.304056576180868 0.1714577452753128 0  1.67579304192913 0.07430640243902437 0  0.2751941921308361 0.3346083473122598 0  1.209670467133757 0.1362100266964769 0  1.025335513626278 0.1700681449722324 0  0.7562500000000001 0.41 0  1.58125 0 0  0.7567170593862014 0.2409196493502535 0  0.6926714215682891 0.1272249611432207 0  0.4139715849905988 0.3397932387114203 0  0.9840787304190477 0.2717749043358119 0  0.06875000000000001 0.41 0  0 0.35875 0  0.9281250000000001 0.06276726142697993 0  0.5507396469029935 0.3219409231578227 0  0.5504468037989405 0.09136885600634273 0  1.58125 0.41 0  1.631724228912893 0.3381867502687533 0  1.825608881788174 0.14499488549201 0  1.85625 0 0  1.44375 0 0  1.44375 0.41 0  1.85625 0.41 0  2.13125 0.41 0  0.7562500000000001 0 0  0.89375 0.41 0  0.4812500000000001 0 0  0.34375 0.41 0  0.4812500000000001 0.41 0  0.20625 0.41 0  0.06875000000000001 0 0  1.16875 0 0  0.61875 0 0  0.61875 0.41 0  1.03125 0.41 0  1.71875 0 0  1.99375 0 0  1.99375 0.41 0  1.340625 0.3489494290853124 0  1.134375 0.3489494290853123 0  1.700180620188976 0.3438659752031281 0  2.135782184673599 0.07126652247502523 0  1.668441847249787 0.2129203728327609 0  1.295782514339747 0.2378437748815763 0  0.8233075729931248 0.06842334294821524 0  1.409375 0.3520314716057996 0  0.403505597322782 0.182067236678212 0  0.378125 0.05794951541303489 0  0.3043468223249023 0.1518321115979534 0  2.129248544730567 0.1906135162504124 0  2.060771381434487 0.1989445750470348 0  2.013252586573865 0.1496169464686054 0  1.942766402200229 0.1734448904596831 0  1.895522487186454 0.06076163953489683 0  2.069553871656643 0.06605731020975725 0  1.274680914880868 0.3520219391081363 0  1.614713220494657 0.09473434380863296 0  0.7899021319497519 0.3149123934144827 0  0.69518737419149 0.0634051089053758 0  0.2971740475496061 0.2592172353407536 0  1.72990325744076 0.2380068107952482 0  1.356580098625191 0.2120393231351682 0  2.034370752044885 0.2668681600792073 0  1.51768709249349 0.3426260931494756 0  1.561883724969884 0.1650446847858835 0  1.197344062229598 0.2523725417393646 0  1.804085235518364 0.3468178408964637 0  1.817887819205233 0.2589243285818559 0  1.905897727272727 0.3485060975609756 0  0.6719798073392919 0.2688965171178177 0  0 0.05125 0  0.653125 0.35875 0  0.6396896119294488 0.1627615407790282 0  0.4274150154087412 0.1242548552168279 0  1.192836486056382 0.3562350748565544 0  0.8279124365364005 0.183856489168822 0  1.097485222388854 0.2083571153401724 0  1.28257088594801 0.2944411014911587 0  1.474860187679412 0.2504218616229368 0  1.406767003493824 0.2829282258560709 0  0.446875 0.04619219810344041 0  0.515625 0.04585361801037557 0  0.592043440706648 0.05125 0  1.845656689180403 0.1998310418452388 0  2.144958525570388 0.2909790873294231 0  0.6171090763650112 0.2492366900333857 0  2.2 0.15375 0  0.5145586920831158 0.3648371739579888 0  1.57794966442982 0.3540357145964566 0  0.721875 0.3633107922168974 0  0.0496154796471391 0.333125 0  0.5843750000000001 0.3662560860076676 0  0.5810878747760798 0.1474002776121195 0  1.508991196088596 0.1421783375065625 0  0.8840670607017558 0.2640994375393898 0  0.09776612425612034 0.2204896805326566 0  1.50436820029908 0.06143401634903343 0  1.223857000523521 0.0823554862453532 0  1.153316824384777 0.1289850171317837 0  2.148922302309752 0.1258841779285271 0  0.309375 0.04312325590431198 0  1.621993280276081 0.2841214267927899 0  1.550118654119087 0.2461998729100966 0  1.327182649291491 0.1216967252533594 0  1.051977450479407 0.1221382572915816 0  1.753125 0.04556020050186112 0  1.271875 0.04556020050186116 0  0.9816084133102366 0.05126138213476004 0  1.039051841454368 0.0572224914831029 0  0.9719230514536006 0.3480477870845102 0  1.94956388244759 0.1180512551534177 0  1.949997712993411 0.04965831614304109 0  1.771961817615021 0.1530278789497521 0  1.909246823951428 0.2812757146784527 0  0.2459536687882397 0.04668633953831142 0  1.948575539857022 0.2445328248721197 0  1.697271520964565 0.1233917627620729 0  0.7964897648514618 0.1211426571931604 0  1.065625 0.3689344961371042 0  1.085849084308977 0.3170853572226867 0  0.4702981435440001 0.260434880697798 0  1.577403511714593 0.05463601888079143 0  0.05622663515370135 0.05493816910862376 0  0.3267207591099919 0.3566194660323104 0  0.9003051618565143 0.3564049499960621 0  1.751571320346033 0.3651102912045228 0  0.1583785085108421 0.2994699345738728 0  0.1455283439499995 0.3542795598723423 0  2.2 0.35875 0  0.2347662494194072 0.298325008655211 0  0.1527284455616188 0.1065771775690181 0  0.1382139529076665 0.05427454456341477 0  0.8749341636311069 0.05110114999892954 0  0.643661668713109 0.05693499781019222 0  1.466879772203159 0.3611261772912453 0  1.990280163552011 0.3564754268533217 0  1.17471064520912 0.2990917256188288 0  0.5202693090594349 0.206382495511728 0  0 0.25625 0  2.2 0.25625 0  2.2 0.05125 0  0 0.15375 0  1.853978576207987 0.35875 0  0.9787513713939683 0.1487523696999336 0  0.240625 0.3722153812029779 0  1.515638456102889 0.2882700110184686 0  0.09048297387599738 0.3637717362208066 0  2.150453692751374 0.2387066338105111 0  1.323782677156475 0.04897634338873398 0  0.8074131292871642 0.3624701995505916 0  1.409375 0.03715320121951221 0  1.406484531114799 0.1087852750766809 0  1.134375 0.03715320121951218 0  1.627401732573545 0.04552157221025036 0  0.1170173172005315 0.1427610859166811 0  2.045405893604797 0.1105340662939892 0  1.255408269734577 0.1577307500159216 0  2.028125 0.03707597992059326 0  0.4743610090857199 0.1421513964721819 0  0.9354010469015898 0.250631300585664 0  0.04420832937638274 0.128125 0  0.8922386349349938 0.0992956419364831 0  0.1197849154434487 0.2663398672460083 0  1.248258025468107 0.2565907092181813 0  0.3746885856929528 0.370723531618974 0  1.203125 0.0366132337404304 0  0.5724622277005015 0.2751253816079333 0  0.3365425205162783 0.08395777655057959 0  2.072662025974815 0.2975086504196739 0  0.4581080832182547 0.3648371739579888 0  0.3874522734668214 0.2295447548840689 0  0.7827853612484443 0.04106550386289586 0  1.887722846421017 0.1760882698830035 0  1.472640588990488 0.1118278026240017 0  1.865937103925594 0.2604137786483804 0  1.463913572748262 0.2030442564990043 0  1.376426316059077 0.3186741374914345 0  0.6641993820150034 0.3141688596240831 0  0.2943117490824315 0.2130987422685822 0  0.3478153998082709 0.1666571081082676 0  0.3427990510599805 0.2575950027870776 0  0.7997118993855807 0.2216171933356366 0  
[...]
<PointData  Scalars="f_10-0"> 
<DataArray  type="Float64"  Name="f_10-0"  format="ascii">2.6098213606796327e-05  6.7463023061927407e-04  1.3807395147340387e-05  8.5490944846852860e-06  8.3132237687283698e-04  1.5399242519548390e-03  2.0731214400564104e-03  2.2096784240330639e-03  1.5360270285936391e-03  6.9429382411799153e-04  3.0760492310455596e-04  2.0379633385320242e-04  1.6372097499523132e-04  2.4831945748971049e-04  3.2636462672459552e-03  3.3048309086676177e-04  1.6247643971954335e-04  4.5169712811266409e-03  6.0404763860114802e-05  5.0344765142251681e-03  3.6016946075102505e-05  2.9017483461870843e-04  8.2557863384338695e-04  1.5768323260784278e-04  3.9962978049427784e-03  2.1014800082128039e-03  4.3073635390095783e-04  1.5405631005830712e-04  7.5593640986465992e-05  1.4745746266849047e-03  7.3086818269692602e-04  1.8854305459736994e-03  1.8820377509358725e-03  1.8077679204484419e-03  4.8790879607334078e-05  1.4668698524544339e-03  2.3558679324966160e-04  4.7724987006076403e-05  2.6247276621375604e-05  2.8903869961580402e-05  4.8312947931823287e-03  4.3783619143562812e-05  1.6720192516660737e-04  2.1808701776874725e-03  1.4336596269005663e-03  3.9306618870868894e-04  3.9125275829363017e-04  9.1296356766723552e-04  2.4196828213169540e-04  3.6763493421987071e-03  9.4769030537800695e-05  4.2587966784304373e-03  3.4961773994334473e-03  2.8964326528544091e-05  2.7391567150334239e-03  2.6427226606677741e-03  4.0342030209506455e-04  1.3189370785553424e-03  9.2997648698179007e-04  7.0988469266362181e-04  3.2092444985973487e-03  9.9088350908807521e-04  1.8274860121158385e-04  4.6005435284935379e-04  1.1305540647106837e-04  3.0748517981793043e-04  1.8782801174802708e-04  4.0887300592026259e-03  3.1453952486693729e-03  5.4933539319690209e-05  3.6498000647008639e-04  9.2115461855009134e-05  4.2555106042133266e-03  1.8878271655055818e-03  1.1770699183162056e-04  3.4046538105006620e-04  1.9866141807903232e-04  7.6574302372495412e-04  7.4989644485505774e-04  3.9344228109829699e-03  4.7487349953473747e-04  5.2754282811166842e-04  1.6916299896710673e-04  8.9880952074145308e-04  2.7006585198546965e-03  4.1118182385029952e-05  7.3565544930925418e-04  1.7260861823561217e-03  3.3085518573401518e-03  2.1251508887919742e-03  3.1039404917839689e-03  4.0667136031466281e-04  5.7300189742448116e-05  4.9439147469253631e-04  1.3122364276623405e-03  2.6126694676459191e-03  1.3773130037191032e-03  5.6089379709802911e-05  1.4401165360424083e-03  4.1946801059433896e-03  4.9480457954748985e-03  2.3594807707504546e-05  3.8618137175295349e-05  4.2473859694717742e-04  3.8458939561015954e-03  1.2089662668529036e-03  4.7570813707872948e-03  5.3498366023071043e-04  2.2956220863223990e-04  3.7066992526639932e-04  8.1968369398701161e-05  4.9790154426610066e-03  3.9206852352970415e-04  5.5801398631215825e-03  3.0452781836413124e-03  2.5649094748138302e-04  4.0881570953285080e-04  9.7819286513198806e-05  3.3475918299674797e-03  1.9484385716150034e-03  2.4302959049289541e-03  2.4243001854449605e-03  2.9570567961592826e-04  1.8815207338523823e-03  1.0186134507468689e-03  1.8460091697891448e-03  3.2965294333457697e-03  3.4856342201080369e-03  2.1174905259138000e-03  1.0952848247400616e-03  7.1102932923699703e-05  2.6181496401375621e-03  2.4167972586686382e-03  1.2215079226900608e-04  1.1173507598116153e-03  1.1443676434381240e-03  3.5929423173786034e-03  8.0073503110735951e-05  9.2169936781141555e-04  2.6631276949431595e-05  3.2995618167174802e-05  3.7163318189539791e-03  1.1825597222355889e-04  4.2824226572968993e-03  3.4573489914182213e-04  4.9354725796566835e-04  6.7758727286484476e-04  2.5128354671634926e-04  1.7561225044207206e-03  4.2126595525996102e-04  1.1839091211228248e-04  1.4021689209106188e-05  4.1319497367678553e-03  1.9685141133182836e-04  4.6728336828525015e-03  3.9519548306877046e-05  5.0329081648340187e-05  3.1974170658983326e-05  1.3708602148596468e-03  3.0206021200324283e-03  4.3824217450360876e-03  7.4645206028045659e-05  2.8562648054425969e-04  5.8283200774256075e-04  8.5631368754665225e-05  4.6959168010107761e-05  5.4462023905409022e-04  4.4864111373213867e-04  3.9827526403261962e-04  5.4009493963480041e-05  1.0509046600427683e-03  1.4024283590522092e-03  3.8964869696456162e-03  5.4317757637897107e-04  1.9662569362455416e-03  4.6875106352494110e-03  2.3001053788833112e-03  8.7436613097809698e-05  1.5121786587411043e-04  2.1969772820131192e-04  3.5340231565692335e-04  3.2604584232665023e-04  9.2881516380720743e-05  5.1333380783750299e-04  1.4369771449938521e-03  3.5099711639605276e-04  4.1635167526063149e-03  6.2832668328086159e-04  7.8392243896412833e-04  1.6389254047680267e-03  1.4260819804398278e-04  5.5648093518391754e-04  1.5792851690829553e-03  1.2463140416536255e-03  2.6934394601482075e-04  5.0747868412312231e-04  1.6098230659742927e-04  5.5378325871669625e-04  5.2956739139899784e-04  1.0362008069444363e-04  3.1290504659559674e-03  3.4526248206932461e-03  4.5758403531372062e-04  2.2971496158937441e-03  1.8153559114863996e-03  8.5559123839021453e-04  1.1755451395950725e-03  9.5351274136545698e-04  4.6944060214354514e-03  4.5685362213118610e-03  4.4134735111422451e-03  5.7410440596333465e-04  5.0773139558040190e-05  7.1885037355124402e-04  4.9269762110109028e-05  6.4272650545115861e-05  4.7389994370876089e-04  1.3151094621077642e-04  4.2943420548452154e-05  7.6570403550189488e-05  3.5612925458062515e-03  1.8396432315853164e-03  9.4077043160705875e-04  1.4893688624262737e-04  1.7967168807019233e-03  2.9238528147380871e-03  2.7857807561466165e-03  6.8609930307020919e-05  4.9901715832356610e-03  7.7085428548785868e-04  1.1141641402736496e-03  2.4688117967370878e-03  3.0241751427288236e-03  6.5073972124916814e-04  2.7431998972798797e-03  3.6377724055438598e-03  3.4843760794055481e-03  3.3780730239704835e-04  3.1954207423626110e-04  2.0052783735114956e-04  8.6098534493003450e-04  2.8637262111329249e-04  5.2103154779601741e-03  2.8110332871883226e-04  1.1397867578113263e-03  3.4370127053371001e-03  3.4353591572905970e-04  5.8508469291095760e-04  3.9038426213971328e-04  1.4181979463520429e-03  1.1544265343984728e-03  5.5284436290878677e-05  2.5683586281135580e-04  2.7365893291882127e-04  8.4933181924778812e-05  4.0817572543662273e-05  1.5734227140306088e-05  1.1245755073301972e-04  5.5524693986616965e-03  5.5500053095034326e-03  3.8695261360784418e-03  4.2964100865959210e-03  5.0191068575408725e-04  8.6247375848482155e-05  7.7374287746811174e-04  1.7083554610656962e-03  9.5553874233747228e-05  4.0934161943793334e-05  2.4889414813012198e-05  2.6360389563602038e-04  1.8864085290213630e-04  2.7788586879448772e-03  4.1116456976921396e-05  8.6173152905662774e-04  3.3696650110550792e-05  6.4444062389771255e-05  2.5434424817403112e-03  1.8163756614789881e-04  2.0991367297219215e-03  2.2801918473882928e-03  3.2166677800149592e-03  1.1351638424030093e-03  2.7065001912309409e-03  1.5590151443875994e-04  2.3301277410471338e-03  9.2851584744243338e-05  3.3689770347999056e-03  1.1610994870980304e-03  4.9090823955029081e-04  3.5319251688202568e-03  1.0274354484521555e-04  1.2060936976295874e-03  4.8932717758797681e-05  2.9743135202675531e-03  3.0498540586804563e-04  4.2379583637166722e-03  8.7550418875471500e-05  5.8263415977396891e-05  9.1541385602393990e-04  4.0695804790638534e-03  4.8599631687019858e-04  2.0391175985066895e-03  4.0515812415720635e-04  1.5807050425249544e-03  7.0395400398117749e-04  2.0897301923243953e-04  1.3752624982449530e-03  2.0875341229938814e-03  6.6966079413353224e-04  1.5439606364555161e-03  6.1410958134292687e-04  6.4038000875605737e-04  4.6804706811043214e-05  2.7639860296365970e-03  3.4973271875237038e-03  1.5004519624184924e-03  8.4334644539525087e-04  1.2042980822684834e-03  1.8142575133366693e-03  2.7333646631999141e-03  3.5536776249390883e-05  1.5071310032861037e-03  1.7890839550121901e-03  1.0091373887864889e-03  3.8734282583841712e-04  1.5566335601206285e-04  2.0023659059433251e-04  2.9681218140566069e-05  1.9330945357937927e-05  4.1186602063240647e-05  2.7557633756966514e-03  4.1575260356024246e-03  3.1856236513220495e-04  7.5675694491927946e-04  1.3714980552969843e-04  4.2988204368338218e-03  1.2780020866632442e-03  2.1310182477712160e-03  1.5944009517373046e-03  1.2639895017822239e-03  3.7106551637868673e-04  1.7614745087870675e-04  6.9627017211477797e-04  7.9725276135388405e-04  2.6440647849091363e-04  3.0723395725533811e-04  2.6293394553601522e-05  1.6100487230448656e-05  2.6108094735080947e-05  4.0396316253935548e-03  1.4896345048463324e-04  2.3070347865344109e-03  2.6754670112541200e-03  9.8782125104170245e-04  5.0298363599291234e-04  4.8181392011642445e-04  1.2715036412719080e-03  9.6875816080357164e-05  1.0878402318017333e-03  3.4398679086138830e-03  1.4009664699675758e-04  3.3938968006372275e-03  4.3338965832122176e-04  3.5246784166007429e-04  3.5031347932336886e-03  4.3475808959155156e-03  3.0500663648506889e-05  1.5932957156771085e-04  2.2008863891042582e-04  1.3849834524504868e-03  4.4718081084722642e-04  1.1887975328440498e-04  1.8427877234254853e-03  5.0847679041445141e-03  2.2820375951148227e-03  2.4719262195784814e-03  9.7430477820728046e-04  7.1121021510385583e-04  1.8876578466070970e-04  1.6192640578319752e-04  1.9485309947120312e-03  3.1182505044506938e-03  1.3343511983108624e-03  1.4236750145709303e-03  2.3549120414581492e-03  3.4263299413043530e-04  6.6558811463284597e-05  7.3973981096763744e-04  1.4061349832165024e-04  5.7829667716364878e-04  9.5299898053259101e-05  3.4893594919910422e-04  1.9906048815029184e-04  3.1340184795276669e-04  1.8933815219332331e-03  9.9713905992504840e-04  9.1583503009077714e-04  1.3003932562142646e-03  8.0969264002677603e-04  4.0730178504689787e-04  1.5600251542771817e-04  3.0309947159576089e-05  4.9509330540733270e-05  2.0933196888052283e-03  2.9316402208057670e-03  5.4774405796850496e-04  6.5244041371359708e-05  4.5054282474506239e-03  9.6746657873481777e-05  7.1029726294043758e-04  3.9003825240696314e-03  2.5258367334168158e-04  1.4646713398285135e-04  1.7324259182104342e-03  2.2660371022622440e-04  1.1100704379673684e-03  3.6670774560472559e-03  1.3718523231200173e-04  1.0196502406243989e-03  4.3665098612683946e-05  3.6746206159656048e-05  1.1332239345422403e-03  3.7728069013503796e-05  2.8257682577343809e-03  2.5890242985995514e-03  3.8857783102178795e-03  2.9070739151661595e-03  3.1254658794907988e-03  2.2014437427641563e-04  9.8910789539519909e-04  2.0175720713842693e-04  7.2724840869419819e-05  1.4996961121880512e-03  8.5902196090597064e-04  1.8166760620168521e-03  1.0083783125594751e-03  2.4594904261631260e-03  2.3913580757953475e-03  2.3202723888555302e-03  3.0604667925794287e-03  1.1682893295211836e-03  2.1904005818474430e-03  2.8980064120076923e-04  2.1148115871254180e-03  8.0679744321084644e-05  2.9135360510352442e-03  2.6672136263305515e-03  2.0369988657839054e-03  6.5881738560013536e-05  6.2581843883404863e-04  5.3559679047331099e-04  4.9611348767853846e-04  3.5449305038245294e-03  3.6870029384898119e-04  4.6831109954035790e-04  7.6334695186278253e-04  3.6643653545971789e-04  1.4085488504202008e-03  4.2874977311467929e-04  3.6823055846575401e-03  3.1588560221710606e-04  2.1131692718336811e-04  1.3225554975389392e-04  1.7770749587737644e-04  2.6421719339656318e-03  1.8784872077390845e-03  6.8864330129758623e-05  9.0092588548244039e-05  6.3299236829542473e-05  3.6113769866424173e-04  1.6473451335848586e-03  1.8548961038279913e-03  2.9084423866199238e-03  2.2380245458243427e-03  4.2813338628253034e-03  2.2695681115806562e-03  4.1297470405301747e-04  3.7282160959404777e-03  3.8265996923088157e-03  3.9228113432440799e-03  3.9640675286246128e-03  4.9917300295200520e-05  8.0751843318285416e-05  3.5696197065049448e-03  3.0469255834638103e-04  2.5564192389547782e-05  6.2435524721435234e-04  1.6764154484277742e-03  1.6998645681157039e-03  5.6464201414789267e-04  7.4173877748967619e-04  8.1236990536611938e-04  4.8482797185568499e-03  5.0112097794509772e-05  3.4731245165053356e-03  1.7280838548717646e-03  6.3191279159900758e-04  2.8540432291486221e-03  3.9367226543890899e-04  3.5155439893371648e-04  4.6665795992815648e-04  4.2687937264506174e-04  4.8347434318569342e-04  6.5007539712867571e-04  1.7843973391794255e-03  9.2419019086358942e-05  3.8701441573131068e-04  1.3941952230091170e-04  7.4600809487329649e-05  1.5200674815003120e-03  2.7792489489102557e-03  4.7936983550866778e-03  4.9108059334005468e-03  1.0034985471610795e-04  1.9603703782613719e-04  1.1607326895421972e-04  1.0871782736950916e-04  5.8508524304652881e-04  2.8382295174199778e-03  1.3426785155634896e-03  4.3801697434260860e-03  3.8584693243097945e-03  4.0829728699436716e-03  7.1215065181903640e-04  2.5700967768656311e-04  2.5349828239240786e-04  1.9633121002010762e-04  2.1826242694621009e-04  4.1420084993116943e-04  3.5881182728957750e-04  3.0940250461058741e-03  4.6608279115021092e-03  2.2695680181765501e-03  3.3794032456149932e-03  1.6689782324668022e-05  3.3023949775252131e-05  3.1444207485228672e-03  1.9351628319477399e-03  4.0886338991085548e-04  1.9878424774787687e-04  3.0849861330567143e-04  4.8975595534257461e-04  1.0785373563186319e-04  4.2677442673265338e-04  4.1960702503597161e-03  1.0364025444598966e-05  3.7636928683279633e-03  4.1438560662876062e-05  4.7533616645984754e-03  4.6546237527223013e-05  2.3984461357539383e-03  3.4013475607143920e-05  4.9571319570191133e-03  2.7549591898864482e-05  4.3205340881122050e-03  4.0650737082142258e-03  5.0310327706869174e-03  6.6650291039202890e-05  5.4746214307153303e-05  4.4476808991752480e-03  4.5932113469023973e-03  8.2904656493999060e-05  3.5843610521674204e-03  2.8772752364711559e-03  9.6282325424713227e-04  1.1503636399485566e-04  2.5847374641283162e-03  6.3920628979835092e-05  5.8941264160768411e-05  2.8245028209330695e-04  2.0644803282647935e-04  3.9208955847155535e-03  2.1329978702000554e-03  2.4310442909632516e-03  4.0182691865810628e-03  1.3316687286993010e-03  1.0486585076436696e-03  5.4588251363615469e-04  6.8375015338435860e-04  6.9985815146767329e-04  2.1652865835279428e-04  1.3583223252756725e-04  6.0406772700615364e-04  4.5579518925801908e-04  7.7255144803127398e-04  2.4365126932945742e-04  9.6474331111848026e-04  4.7195197690967578e-03  1.1486045186985018e-03  6.3045609777736427e-04  8.8986745954229519e-04  1.7378827639698969e-03  2.1005668079153133e-04  4.3662131904796041e-04  3.9602975205941724e-04  8.4888956256203691e-04  2.6729651436806847e-04  1.2554535226547896e-04  1.2692663353739943e-04  1.1522356973965558e-03  8.1906454377587433e-05  6.6040516801087369e-05  1.0160127779423022e-04  3.3317895403085227e-03  1.0116931855004056e-04  1.9469859878728359e-03  1.0570777151985881e-04  5.7192616944539516e-04  3.7710270637078189e-04  4.2228275450671427e-04  3.1328632956910228e-05  5.8621873154892763e-05  6.0388651615370676e-03  3.1928801951037599e-04  5.2438837683631821e-04  1.3184759528107541e-03  1.1034078470406567e-04  1.8760319556616805e-04  1.7938342104180341e-03  2.7421187690705783e-04  5.5829367843210972e-04  5.1476628245583980e-04  2.4484757976590615e-04  4.8229794991285498e-05  4.1218009946781846e-03  2.4308309592759188e-03  1.6489072791395743e-03  3.5291841132710474e-03  3.5951601434025185e-04  1.5638129075731982e-03  1.2478212178634361e-03  2.4368688981915806e-03  1.0595651529010515e-04  1.0244109247824745e-03  3.9431775919237518e-04  9.7751320938504528e-04  3.0853482232369466e-03  4.4368382708982945e-03  3.6814509274797741e-03  3.7717867246041194e-04  2.8886845751157665e-03  1.5886914411385119e-03  5.0176383983765805e-03  2.5251477600439936e-03  3.1725547718115393e-03  4.2262415380986129e-03  1.5265027275068615e-03  1.2715597920576655e-04  2.7652572194180128e-04  1.4711104264897480e-04  2.1796463289236370e-03  3.1287224633353163e-03  1.2891863089259524e-03  6.1106212135870791e-04  3.3548170780855744e-03  6.3145866303629871e-04  1.5848273892679659e-04  6.4191400565248818e-04  4.3795671131234065e-03  1.5309380185720156e-03  1.0112507666928134e-03  1.4701186691162943e-03  1.1907229870009421e-03  1.9768233915395282e-03  4.9794841952728120e-04  4.0185948585269267e-04  1.1612167992370451e-04  1.6168253423674271e-03  6.6318017920425476e-05  6.2837381150441618e-04  6.8637965063373166e-04  1.7308220678328196e-03  3.9617277797048776e-04  6.4635386568338534e-04  7.8096050904173908e-05  8.9577432308390447e-05  5.3543273045146512e-04  5.0183513866241414e-03  4.0224082753813425e-05  2.1006810421162530e-04  2.6068252032771557e-04  5.6030379501892597e-04  4.5645841220382443e-04  7.8778327148066053e-05  2.8337746884890746e-03  1.4928185045936081e-04  2.1573969019763405e-04  1.1927546068192716e-04  3.4766213695720534e-04  4.9142790286013510e-03  7.2423258746411227e-05  3.7179211158187473e-04  4.2573407594762112e-04  1.4066419767999345e-03  1.4161253809546190e-03  3.2121493810995647e-04  4.5468266420202779e-05  8.8232832319819427e-04  4.3344211790668323e-03  2.2451846399907582e-03  1.9609188033200648e-03  2.6853347867456185e-03  8.1047750496053604e-04  2.3766583561179995e-03  3.7769641028412647e-05  1.1718434162537345e-03  1.1312205020619577e-04  3.5126943723467270e-03  4.2907222245373791e-05  6.0151574080570429e-05  3.6145108654161160e-04  6.4144634793462832e-04  1.5406707518751707e-03  1.3650341110241100e-03  9.4483414416954390e-04  1.3335111134047033e-03  1.9109831865040706e-03  2.2733150845671518e-04  4.0307602848873025e-03  4.0858816525723325e-03  3.8577735431061537e-04  1.9424925009075391e-03  1.8873730519932516e-03  1.0149499245695004e-03  1.1731794792610663e-03  2.1994855321242468e-04  3.3168557243242005e-03  4.8972229339117187e-04  7.8898404004371981e-04  6.7394024458235658e-04  3.1942606616667244e-04  1.9367377439271380e-04  4.6053655817933259e-05  6.5438831101225322e-05  8.9697535523178479e-04  1.1328036320288550e-03  2.0029489451117304e-04  4.3835339579538008e-04  1.1932193646081375e-04  8.2588675850475907e-04  9.0087910569552096e-04  5.4221617207627477e-04  4.3016409543106425e-03  2.1516142694570049e-03  5.2727158933276477e-05  3.4823087400865406e-03  1.3705118914413082e-03  4.4777311029783337e-03  1.9067437928768326e-03  6.1853795616734566e-04  4.4943865190984643e-03  3.2307004175237534e-03  3.6497927722740839e-03  4.5421823748940590e-03  1.3723833049382976e-04  2.0433839409196981e-04  4.3032055018751793e-05  6.8800008959025774e-05  3.5982286445856477e-05  5.9224501581207572e-05  4.5118069197592228e-04  1.2530922430241341e-04  2.6518436374214122e-03  2.5629361660614702e-03  5.9149893873797546e-04  4.8911979375742068e-04  1.5658044924834779e-03  2.0880901479261135e-03  2.7027097180646930e-03  2.9858198797240482e-03  4.5530713707279107e-03  1.8763461040794173e-03  5.2790167441141137e-04  5.9894461093439738e-04  4.4140763133506213e-04  5.9121259403139756e-04  5.5491320863523178e-05  7.2255704194269769e-05  2.7383895775591077e-03  3.6584794030748405e-03  5.3833780878567881e-03  1.3620419900792285e-03  3.1895807269133490e-05  5.0810242564001303e-03  3.2463184217055075e-03  4.1416450431457559e-05  2.9546938404006072e-03  4.9654376461655756e-05  1.8848260722516416e-04  1.2868940091579985e-04  5.9715948479953883e-04  4.5335568442074719e-04  1.3110984472443176e-04  3.7939898406273324e-04  5.5873539633122582e-05  6.7530354018537563e-04  4.1987143856301122e-05  4.9860720429279689e-05  5.4717603022774756e-03  6.7879895620690158e-03  3.5725001818937908e-04  1.1107256964933685e-04  1.6812605057879744e-04  1.2799171749280067e-03  9.2784527051848376e-04  1.1534913916779756e-03  6.8272958064201871e-04  3.0225166592768742e-03  1.3960268263274000e-03  6.6112420864649398e-04  6.4891537234222318e-05  2.5915789336505374e-04  2.6101882843488001e-04  1.6930767368030200e-04  9.0996840425028609e-05  2.7918291299756444e-03  3.5017143861843425e-04  2.2937982904520011e-03  9.0445904988829394e-04  3.9451305805623883e-04  8.3935602340040507e-04  2.7504099464681769e-03  4.5564016960545003e-03  5.1999443087352314e-04  5.0081496113412467e-03  7.0720922632542106e-04  1.9592347601471217e-03  2.9608593218338747e-04  9.1739776364650250e-04  2.8101799693114