<?xml version="1.0"?>
<VTKFile type="UnstructuredGrid"  version="0.1"  >
<UnstructuredGrid>
<Piece  NumberOfPoints="2446" NumberOfCells="4585">
<Points>
<DataArray  type="Float64"  NumberOfComponents="3"  format="ascii">0 0.41 0  0 0 0  2.2 0 0  2.2 0.41 0  0.2404508497187474 0.2293892626146237 0  0.25 0.2 0  0.2404508497187474 0.1706107373853764 0  0.2154508497187474 0.1524471741852423 0  0.1845491502812526 0.1524471741852423 0  0.1595491502812526 0.1706107373853764 0  0.15 0.2 0  0.1595491502812526 0.2293892626146237 0  0.1845491502812527 0.2475528258147577 0  0.2154508497187474 0.2475528258147577 0  1.1 0 0  1.1 0.41 0  0 0.205 0  0.55 0 0  0.55 0.41 0  0.275 0 0  0.275 0.41 0  1.65 0.41 0  1.65 0 0  0.8250000000000001 0.41 0  0.8250000000000001 0 0  1.375 0 0  1.375 0.41 0  1.925 0 0  1.925 0.41 0  1.5125 0.205 0  1.7875 0.205 0  0.6875 0.205 0  0.9625000000000001 0.205 0  1.2375 0.205 0  2.2 0.205 0  0.4687002074688797 0.2068568464730291 0  1.99375 0.2152743902439024 0  2.0625 0 0  2.0625 0.41 0  2.2 0.3075 0  0.4125 0 0  0.4125 0.41 0  1.7875 0.41 0  1.375 0.1486128048780488 0  1.5125 0 0  1.7875 0 0  1.5125 0.41 0  0.8250000000000001 0.2613871951219511 0  0.9625000000000001 0.41 0  0.9625000000000001 0 0  0.6875 0.41 0  0.6875 0 0  0.1375 0 0  0.1375 0.41 0  1.2375 0 0  1.1 0.1486128048780487 0  1.2375 0.41 0  1.65 0.1486128048780487 0  1.126715909090909 0.2793064024390244 0  1.676715909090909 0.2793064024390244 0  0.8517159090909092 0.1306935975609756 0  1.348284090909091 0.2793064024390244 0  0.34375 0.3032389320646208 0  1.894702181800738 0.1282910975492754 0  2.092797818199262 0.1282910975492754 0  1.85625 0.3075 0  0.61875 0.3075 0  0.61875 0.1025 0  0.3648540804333487 0.1240075933101478 0  0 0.3075 0  0 0.1025 0  2.099172119769978 0.25625 0  0.48125 0.09238439620688085 0  0.5781001037344399 0.2059284232365146 0  0.48125 0.3196743479159776 0  0.7265881057911006 0.3055240343720796 0  1.99375 0.08395950269330846 0  1.459960956013612 0.3075 0  1.569025960719943 0.2986889805672169 0  0.75625 0.08213100772579164 0  1.03125 0.3278689922742084 0  0.923871252904788 0.3078247185783941 0  1.959375 0.3126371951219512 0  1.749222215368287 0.1025 0  1.275777784631713 0.1025 0  2.2 0.1025 0  1.225938124459196 0.3075 0  1.550777784631713 0.1025 0  1.000777784631713 0.1025 0  1.44375 0.07430640243902442 0  1.16875 0.07430640243902437 0  1.899250267340833 0.2229966846119207 0  0.1020898364287272 0.3140258291809757 0  1.766482954545455 0.2934032012195123 0  0.3405058858996321 0.2119987970531874 0  0.7710785630958338 0.1710968191298857 0  1.046078563095834 0.2389031808701144 0  0.2 0.3400647632937836 0  1.421109702350723 0.2261157654379721 0  0.2800464974185557 0.08982544815605742 0  0.098916018031319 0.09171660955420841 0  2.13125 0 0  2.118919042110979 0.3422084711244843 0  1.30625 0.41 0  0.89375 0 0  1.597888256393107 0.2173787389261347 0  0.20625 0 0  1.829299675393195 0.07400700849299596 0  1.71875 0.41 0  1.16875 0.41 0  2.038220665644273 0.332420740103091 0  0.34375 0 0  0.417496017710808 0.2696595573092803 0  0.2 0.07687845740457822 0  0.9295982307099278 0.1343158415898188 0  0.07390688010811153 0.1697064032433452 0  0.5238366813727013 0.2578302467013575 0  0.05452951551825875 0.25625 0  0.5229630068078351 0.1548816096928243 0  1.452769549894695 0.1548122580621249 0  1.369219062229598 0.07430640243902442 0  1.30625 0 0  0.8504409521244898 0.3356935975609756 0  0.8821881244591965 0.205 0  1.720943423819132 0.1714577452753128 0  1.157188124459196 0.205 0  1.094219062229598 0.07430640243902437 0  1.03125 0 0  1.304056576180868 0.1714577452753128 0  1.67579304192913 0.07430640243902437 0  0.2751941921308361 0.3346083473122598 0  1.209670467133757 0.1362100266964769 0  1.025335513626278 0.1700681449722324 0  0.7562500000000001 0.41 0  1.58125 0 0  0.7567170593862014 0.2409196493502535 0  0.6926714215682891 0.1272249611432207 0  0.4139715849905988 0.3397932387114203 0  0.9840787304190477 0.2717749043358119 0  0.06875000000000001 0.41 0  0 0.35875 0  0.9281250000000001 0.06276726142697993 0  0.5507396469029935 0.3219409231578227 0  0.5504468037989405 0.09136885600634273 0  1.58125 0.41 0  1.631724228912893 0.3381867502687533 0  1.825608881788174 0.14499488549201 0  1.85625 0 0  1.44375 0 0  1.44375 0.41 0  1.85625 0.41 0  2.13125 0.41 0  0.7562500000000001 0 0  0.89375 0.41 0  0.4812500000000001 0 0  0.34375 0.41 0  0.4812500000000001 0.41 0  0.20625 0.41 0  0.06875000000000001 0 0  1.16875 0 0  0.61875 0 0  0.61875 0.41 0  1.03125 0.41 0  1.71875 0 0  1.99375 0 0  1.99375 0.41 0  1.340625 0.3489494290853124 0  1.134375 0.3489494290853123 0  1.700180620188976 0.3438659752031281 0  2.135782184673599 0.07126652247502523 0  1.668441847249787 0.2129203728327609 0  1.295782514339747 0.2378437748815763 0  0.8233075729931248 0.06842334294821524 0  1.409375 0.3520314716057996 0  0.403505597322782 0.182067236678212 0  0.378125 0.05794951541303489 0  0.3043468223249023 0.1518321115979534 0  2.129248544730567 0.1906135162504124 0  2.060771381434487 0.1989445750470348 0  2.013252586573865 0.1496169464686054 0  1.942766402200229 0.1734448904596831 0  1.895522487186454 0.06076163953489683 0  2.069553871656643 0.06605731020975725 0  1.274680914880868 0.3520219391081363 0  1.614713220494657 0.09473434380863296 0  0.7899021319497519 0.3149123934144827 0  0.69518737419149 0.0634051089053758 0  0.2971740475496061 0.2592172353407536 0  1.72990325744076 0.2380068107952482 0  1.356580098625191 0.2120393231351682 0  2.034370752044885 0.2668681600792073 0  1.51768709249349 0.3426260931494756 0  1.561883724969884 0.1650446847858835 0  1.197344062229598 0.2523725417393646 0  1.804085235518364 0.3468178408964637 0  1.817887819205233 0.2589243285818559 0  1.905897727272727 0.3485060975609756 0  0.6719798073392919 0.2688965171178177 0  0 0.05125 0  0.653125 0.35875 0  0.6396896119294488 0.1627615407790282 0  0.4274150154087412 0.1242548552168279 0  1.192836486056382 0.3562350748565544 0  0.8279124365364005 0.183856489168822 0  1.097485222388854 0.2083571153401724 0  1.28257088594801 0.2944411014911587 0  1.474860187679412 0.2504218616229368 0  1.406767003493824 0.2829282258560709 0  0.446875 0.04619219810344041 0  0.515625 0.04585361801037557 0  0.592043440706648 0.05125 0  1.845656689180403 0.1998310418452388 0  2.144958525570388 0.2909790873294231 0  0.6171090763650112 0.2492366900333857 0  2.2 0.15375 0  0.5145586920831158 0.3648371739579888 0  1.57794966442982 0.3540357145964566 0  0.721875 0.3633107922168974 0  0.0496154796471391 0.333125 0  0.5843750000000001 0.3662560860076676 0  0.5810878747760798 0.1474002776121195 0  1.508991196088596 0.1421783375065625 0  0.8840670607017558 0.2640994375393898 0  0.09776612425612034 0.2204896805326566 0  1.50436820029908 0.06143401634903343 0  1.223857000523521 0.0823554862453532 0  1.153316824384777 0.1289850171317837 0  2.148922302309752 0.1258841779285271 0  0.309375 0.04312325590431198 0  1.621993280276081 0.2841214267927899 0  1.550118654119087 0.2461998729100966 0  1.327182649291491 0.1216967252533594 0  1.051977450479407 0.1221382572915816 0  1.753125 0.04556020050186112 0  1.271875 0.04556020050186116 0  0.9816084133102366 0.05126138213476004 0  1.039051841454368 0.0572224914831029 0  0.9719230514536006 0.3480477870845102 0  1.94956388244759 0.1180512551534177 0  1.949997712993411 0.04965831614304109 0  1.771961817615021 0.1530278789497521 0  1.909246823951428 0.2812757146784527 0  0.2459536687882397 0.04668633953831142 0  1.948575539857022 0.2445328248721197 0  1.697271520964565 0.1233917627620729 0  0.7964897648514618 0.1211426571931604 0  1.065625 0.3689344961371042 0  1.085849084308977 0.3170853572226867 0  0.4702981435440001 0.260434880697798 0  1.577403511714593 0.05463601888079143 0  0.05622663515370135 0.05493816910862376 0  0.3267207591099919 0.3566194660323104 0  0.9003051618565143 0.3564049499960621 0  1.751571320346033 0.3651102912045228 0  0.1583785085108421 0.2994699345738728 0  0.1455283439499995 0.3542795598723423 0  2.2 0.35875 0  0.2347662494194072 0.298325008655211 0  0.1527284455616188 0.1065771775690181 0  0.1382139529076665 0.05427454456341477 0  0.8749341636311069 0.05110114999892954 0  0.643661668713109 0.05693499781019222 0  1.466879772203159 0.3611261772912453 0  1.990280163552011 0.3564754268533217 0  1.17471064520912 0.2990917256188288 0  0.5202693090594349 0.206382495511728 0  0 0.25625 0  2.2 0.25625 0  2.2 0.05125 0  0 0.15375 0  1.853978576207987 0.35875 0  0.9787513713939683 0.1487523696999336 0  0.240625 0.3722153812029779 0  1.515638456102889 0.2882700110184686 0  0.09048297387599738 0.3637717362208066 0  2.150453692751374 0.2387066338105111 0  1.323782677156475 0.04897634338873398 0  0.8074131292871642 0.3624701995505916 0  1.409375 0.03715320121951221 0  1.406484531114799 0.1087852750766809 0  1.134375 0.03715320121951218 0  1.627401732573545 0.04552157221025036 0  0.1170173172005315 0.1427610859166811 0  2.045405893604797 0.1105340662939892 0  1.255408269734577 0.1577307500159216 0  2.028125 0.03707597992059326 0  0.4743610090857199 0.1421513964721819 0  0.9354010469015898 0.250631300585664 0  0.04420832937638274 0.128125 0  0.8922386349349938 0.0992956419364831 0  0.1197849154434487 0.2663398672460083 0  1.248258025468107 0.2565907092181813 0  0.3746885856929528 0.370723531618974 0  1.203125 0.0366132337404304 0  0.5724622277005015 0.2751253816079333 0  0.3365425205162783 0.08395777655057959 0  2.072662025974815 0.2975086504196739 0  0.4581080832182547 0.3648371739579888 0  0.3874522734668214 0.2295447548840689 0  0.7827853612484443 0.04106550386289586 0  1.887722846421017 0.1760882698830035 0  1.472640588990488 0.1118278026240017 0  1.865937103925594 0.2604137786483804 0  1.463913572748262 0.2030442564990043 0  1.376426316059077 0.3186741374914345 0  0.6641993820150034 0.3141688596240831 0  0.2943117490824315 0.2130987422685822 0  0.3478153998082709 0.1666571081082676 0  0.3427990510599805 0.2575950027870776 0  0.7997118993855807 0.2216171933356366 0  
[...]
<PointData  Scalars="f_10-0"> 
<DataArray  type="Float64"  Name="f_10-0"  format="ascii">3.0037866015530752e-06  4.3757472087547025e-04  4.6805198507805900e-14  2.5518667440067004e-14  6.8383402739484011e-04  1.3498501972220511e-03  1.8942736302462984e-03  2.0670508961626380e-03  1.4102596292355086e-03  5.7703255856017056e-04  2.0016773187384840e-04  1.0639745570587492e-04  7.4492061681141698e-05  1.5388838928840045e-04  2.6751271248760762e-04  2.8144730402720728e-05  5.7673919483856996e-05  3.8147443145899597e-03  2.1787721756956606e-05  4.8179974473867675e-03  6.0969160024477724e-06  1.3116522460301305e-08  3.8056077769664046e-08  6.1005938311429134e-05  1.9319564541604029e-03  6.8688145098328360e-06  1.4333543976377237e-06  6.5953427163414425e-11  2.6990545991888952e-11  3.3352849078391539e-06  1.5672285340731379e-08  1.6932300132987085e-03  1.1122315089634475e-03  1.5015174173109081e-04  5.8653778004154070e-13  1.3109238056808513e-03  1.1324193519621854e-10  1.7508885038890292e-12  7.4635969197050447e-13  2.7482225988169490e-13  4.5879528520713373e-03  1.1509731880673358e-05  6.2533786829510472e-10  3.2827179875186207e-05  6.2970607191880436e-07  1.6722025136188495e-09  1.6559668677999449e-07  7.2317573024681739e-04  5.6314774036767532e-05  8.9272567875122604e-04  3.8163513363114985e-05  2.9227010721321620e-03  3.2663584692250221e-03  3.6605035242025603e-06  5.3440317272636823e-05  6.8120266840998242e-04  8.2108836235888285e-06  2.9885065955765278e-07  1.9798195275982927e-04  9.5149344220288551e-08  2.4123315849107533e-03  2.1085221916738257e-05  1.1015604451285187e-04  1.2952652903712969e-09  8.3433039920804950e-12  1.5057647327990332e-09  1.2310332553215671e-04  3.7314958903879526e-03  2.9680354995821777e-03  1.1349973147181559e-05  1.7607308084666474e-04  6.0076121641680918e-12  4.0481295942150801e-03  1.7176909548504771e-03  6.4646456018001075e-05  2.5322719620514633e-04  7.8407943676550944e-11  3.1186868135226263e-06  5.7699021537946517e-07  3.0868208511225354e-03  1.6103198218276213e-04  3.0985933509986160e-04  1.2385514696505368e-10  3.1591836054263726e-08  1.1161673179509583e-04  4.5867938592023525e-13  5.8140872469446836e-05  1.6737200666366828e-06  1.3455281076834426e-03  8.1872120531115557e-06  3.0971603244461240e-04  1.1174296979178222e-09  1.1960756818585492e-05  1.2968040415866554e-08  1.1389554106900543e-03  2.2755329144965196e-03  5.3864868407082567e-04  1.2685980048984466e-05  1.2548003960898167e-05  4.0306845135238967e-03  4.7588260171392551e-03  2.2471306223302860e-13  1.2170923863491339e-12  3.6513896999886335e-06  1.3796042910547337e-03  6.8971634112257893e-07  4.5350458929348915e-03  3.7853778327837205e-09  3.2844009118367617e-09  1.6288054298995243e-05  1.2065781998279653e-11  4.7631594181561550e-03  2.9155488716791381e-04  5.4001723585742649e-03  1.8700552227742162e-03  1.2609265609565151e-04  3.1344494423555510e-04  2.7153945767173960e-05  3.1477428049704846e-03  1.0157199676470904e-05  2.5621072978810692e-05  1.9137263059272868e-05  1.8072429014700752e-04  1.4150669334986677e-03  6.9822726842482780e-08  3.2733103127184214e-04  6.1747269127246840e-04  5.2655588401996677e-04  8.1244029708673574e-05  1.1059321232051509e-07  2.1337406496620550e-05  2.5461145009907549e-04  1.0411304255560194e-03  4.9869687229666457e-05  1.6859225684766884e-07  9.7730882032006500e-04  3.2242929016051513e-03  3.4432176952481617e-05  4.7486657378878233e-04  3.1151780392621803e-06  4.8006023367787488e-06  1.6934583278752657e-03  6.5982289077652962e-05  3.9988254822421812e-03  4.8394117621605039e-08  1.0168850210864821e-07  7.0035921064860415e-09  3.3155359337437673e-10  2.0193406748445946e-06  5.3791436055360736e-07  1.4828161054750675e-10  1.1930557722497009e-13  2.4453551605524786e-03  6.1898613139584348e-05  4.2853531257556329e-03  8.1243381624011527e-06  1.6313504817119270e-05  4.5106347445748604e-06  1.1356587130932569e-03  1.2939515474185987e-04  3.3505465509964636e-03  2.8553926773958594e-05  4.1892127340310000e-05  8.4544506685401844e-09  9.6959523242515532e-12  4.9774387059910001e-12  8.0230506798256138e-06  6.1305322917855104e-05  2.3714979038597449e-08  1.4314323674007946e-12  1.8213665180619361e-07  6.1012654917582207e-05  2.5686703637527440e-03  3.0495655179829641e-06  1.7879936152616089e-03  4.4920235477761980e-03  2.1144630720109272e-03  3.4419141382080660e-12  2.1062560903799297e-11  7.2770321526046166e-11  4.4203597818009242e-10  6.2827523953797674e-10  7.9000428344906660e-12  1.6387219531660256e-05  4.7513230293225408e-07  2.5051878739831325e-04  3.3404952093530802e-03  4.9872975067327913e-04  4.5464769483655978e-08  3.3976836047212805e-05  2.9989724005992898e-11  6.9896847924189462e-07  1.5880198569396678e-06  1.5132585725513575e-04  2.4947832359061619e-09  5.7567769610420132e-09  2.3293761802431888e-10  4.5153954644994686e-04  3.0619432618621240e-04  5.1430997617189488e-05  2.8892652678239161e-03  3.2686527200501011e-03  3.3570055755728619e-05  1.8911733626501130e-03  5.1472956741587439e-04  3.8648688765984249e-05  4.5726113588831724e-06  9.2529039918342992e-06  4.4608731801732519e-03  4.1954565104830440e-03  3.8151849176524008e-03  4.2045632838404097e-09  1.3037626413729358e-12  6.0603073618253141e-04  5.8621179743511569e-13  2.5779437963884792e-05  1.9252007374159215e-07  6.8681506140887017e-05  7.5819082565284262e-06  3.3304108750069895e-05  3.3347395842041050e-03  4.0265859655514942e-06  6.7570557640641974e-04  5.2996984110680410e-05  2.4301915364596012e-06  1.8360700325668216e-04  4.4346916644431768e-04  1.7945595767578343e-12  4.7896992052026376e-03  2.6152098939889631e-07  1.3459872056202108e-06  6.1737050240770185e-05  9.9508382831059840e-04  1.1980493479004729e-08  6.6074194772760262e-05  1.1701914087931240e-03  8.2984109274872699e-04  1.3360671243615286e-04  3.2246902864068892e-10  1.2395159749309447e-10  2.3516439387022411e-08  5.8442523995924503e-10  5.0089960664704176e-03  2.9933872610019895e-10  1.0787301598195872e-07  2.7838536348280029e-03  6.2698027672862186e-05  1.4838638146801551e-04  2.9274149346577070e-04  5.6669611317762619e-07  9.3487937478872241e-04  1.4978470920448353e-05  1.2184381775711921e-04  4.7532388650083026e-09  2.4082915301077187e-05  6.9429319306494240e-06  1.0293865048301913e-13  4.2942054800020665e-05  5.3896404138243769e-03  5.3394025531310263e-03  2.0039146676892462e-03  3.5775164563892404e-03  1.0567022400804551e-06  2.4576871910950952e-11  1.0397125122273645e-04  1.5464413405404302e-03  2.6413062364499462e-05  4.5565267815040068e-13  1.9523631498930226e-13  1.1723465198309372e-04  6.1832726948152972e-10  1.4535777463091327e-03  7.6028042715644435e-06  1.6163371644904179e-06  4.9489547911006017e-06  1.6583057080615463e-12  3.4795643394670401e-05  9.6083276101309331e-05  7.4870491680137000e-06  1.9205196654609179e-05  2.8393801753009193e-04  1.7442005529687243e-07  2.5633526309036658e-03  2.6660552173553324e-11  1.5047094926024532e-04  1.1436199173383368e-11  3.1777055501575392e-03  7.3989647132540869e-04  3.2449956965695069e-04  2.2051958060452987e-03  3.0104747794149745e-05  8.7185560175931194e-05  1.2976696427180753e-05  1.3359007987227362e-04  2.2349418038833705e-04  4.0638619688349109e-03  8.3023589437494109e-12  2.1077101522493410e-05  7.6840223542559455e-04  2.5889168040891457e-03  1.6852236328433293e-09  6.7965523900821518e-06  1.9360865105818066e-09  7.4289528314344432e-06  8.7034340085986330e-06  1.4059177165359773e-04  1.1892233447560816e-03  1.8994584777030957e-03  5.3663138579546597e-04  1.3023484359651781e-03  3.6727626153432365e-08  1.6596097963091095e-08  1.4471287993879445e-12  2.4819508530322270e-03  3.0364518104151763e-03  7.4728935677008195e-04  3.4188099799434697e-04  3.5282878016851759e-04  2.2373425853703498e-05  2.5743563225933963e-03  2.0057104832210204e-12  7.4059455789595217e-07  1.6152305008755941e-03  8.6821248221466158e-04  4.2987238391844619e-09  5.3981295361357392e-05  9.6026554001345711e-11  4.5173663231353881e-13  3.0029376845817143e-13  2.2556787370063820e-12  2.5296044079693913e-03  2.9100033049954213e-03  2.5390237293584565e-08  1.2789400946292807e-08  4.3745927773060465e-11  4.0730049312843108e-03  1.8506126123745862e-05  2.5851036627210579e-04  1.1553539893346306e-06  4.1150786532513656e-07  9.2076578111066112e-08  6.2081290311360337e-05  1.7591513845406733e-08  3.1432123124910310e-08  5.0071077809483122e-05  8.0268413592799004e-05  2.9201461494986035e-13  1.5563291931364842e-13  3.0006098625738230e-06  3.5583299698520548e-03  7.6650897396775711e-05  1.5497193096706070e-03  1.9637624986460970e-03  2.9607505565742398e-07  4.1846014946645505e-09  1.9690875802025416e-09  3.3375485580216049e-07  4.9174021768076333e-11  9.4105646977166873e-04  3.2946527517531648e-03  3.0711995907213512e-10  4.8514524201772187e-04  1.6892048058020740e-08  2.6951358184861757e-08  1.6048115505224144e-03  4.1572038435309846e-03  4.0627835010725175e-06  2.3913632610557210e-11  6.1577957277378375e-05  1.6345653637925730e-06  1.7599872311757897e-05  8.9538771792431896e-12  3.0770591890580554e-06  4.8707136417905604e-03  7.7108857866257279e-04  2.2869744569709370e-03  6.0469005400087131e-07  5.7204552693907915e-04  1.1799008047175014e-04  9.8092846595209242e-05  1.7204799153643544e-03  4.9967322361972263e-04  1.0412210305218159e-03  3.1642738478110285e-04  4.7433031702618966e-04  2.2489785749442011e-04  1.4642210459785922e-12  1.9398347909850082e-05  3.9650178206939580e-11  4.1466325074246153e-04  6.2973475091998950e-11  1.0022472680869736e-09  1.4973103945784816e-10  4.0131284144882589e-10  3.3562174570067134e-06  5.9797150046633363e-08  6.2752806942640697e-08  2.4432518344570595e-07  5.7319060844244075e-04  2.5202352917671117e-04  8.4103431163418829e-05  4.0738353884661492e-06  4.7933469077583986e-12  1.8525104228866230e-05  2.6747682484349745e-03  2.4367870008247945e-04  1.4723697718399991e-05  3.9585716445473835e-03  3.1890741881938242e-05  1.2641173270243732e-08  3.3198308961345201e-03  9.1927089202483944e-05  8.5443059016153281e-05  5.4622762621883529e-06  9.0633376816307552e-05  1.8389394876693844e-04  2.4699232323200037e-03  2.4904887949325501e-11  5.9924191124223123e-06  8.9237831625815226e-06  5.8407583009930174e-06  2.4610982863040513e-06  7.0034464179244042e-06  2.6170572705308012e-03  2.4023893045713438e-03  3.6832728939787400e-03  2.7083134637776872e-03  2.9556183863429682e-03  1.4669488932418968e-04  8.5907722158696804e-04  9.0857031555989092e-05  1.7430152522732489e-05  8.7310099912046267e-07  3.7257089341193784e-08  9.7370415885213459e-05  5.3265479020842653e-08  9.8402780390179098e-05  3.3631218949701065e-05  1.5888745648708960e-05  7.5388433211568144e-04  1.4691020356051821e-07  5.3721394749463866e-05  2.0094292460398757e-10  1.9565367550606529e-03  3.2264482030601491e-05  2.8678945285796621e-04  1.7297531244885020e-04  1.8437092167185841e-03  1.7643815122745350e-05  2.5397243423161039e-07  6.9504324963833585e-08  3.8251486365501104e-04  3.4002983168685409e-03  2.6525423424829554e-04  2.6070542530043194e-04  6.4051749913598510e-04  4.6038113488456688e-08  8.3448168827711580e-07  2.4747384640536340e-07  3.3666694377396679e-03  7.6784462861501196e-10  1.3623672778966019e-04  1.7175512121594687e-11  4.5547146799625043e-11  6.4439535717809141e-05  1.6855516314833745e-03  3.4341250957653559e-12  4.3370276625727410e-12  1.3188229018383335e-12  7.0665765697839735e-09  1.3210173607170915e-06  8.0344718080035547e-04  1.2556689212605701e-03  1.1601729191897958e-03  3.2229374294462767e-03  1.4074861616936130e-05  7.3893758939310694e-05  1.2175707535000625e-03  1.5476503049174544e-03  1.6494450733629898e-03  2.0786452915353771e-03  9.0286423108973009e-13  3.4285467681915137e-12  7.7861887187401159e-04  2.9197954864579865e-10  6.2337929638179660e-13  5.0583470414711305e-04  1.9625969559178044e-04  1.1298836773728986e-03  3.1238178777270261e-09  1.2018538734228658e-08  6.9319396235351712e-04  4.6510160494825396e-03  1.5049859182407792e-05  1.9224388115891779e-03  1.5385983964474829e-03  3.3905841335909900e-04  2.3920297924465948e-03  2.9566814743461687e-05  2.1956908743111920e-05  7.1951775091100937e-06  2.1951683246018318e-06  3.2397278901716989e-06  1.1045099955990872e-04  1.3208344472018834e-05  4.1493834414962943e-12  1.1348807395143417e-05  5.6271055594759140e-05  3.2918123096369326e-05  1.3482553266742413e-03  2.5937089624486430e-03  4.5769609961996815e-03  4.6876093317545584e-03  5.2101215972873410e-05  1.2778579055540637e-04  6.4079145759729069e-05  5.7504657306992198e-05  3.7009008738424176e-09  8.4427649316442800e-05  7.6864186566687328e-04  4.1259962410309398e-03  3.6362249901270138e-03  3.8042403054771999e-03  5.5379597550779448e-06  6.0706950631139955e-09  1.2587068776175938e-10  4.9896101032271083e-11  1.7420832043097118e-10  5.3378409238623332e-06  3.6881416379443939e-05  1.9020721112049936e-04  4.3482550821855471e-03  1.1698883862050260e-05  3.8445637025161922e-04  8.6337182355666488e-14  5.8504001510350019e-13  1.8764217833300669e-04  3.9252328983543061e-06  3.0467787099791260e-07  1.5169343293815434e-09  3.5082075588187653e-05  4.2195597992335950e-09  4.4387750552879823e-05  8.4331816642886027e-07  2.6959910285507503e-03  4.9428344842554734e-14  1.1359649138897772e-03  9.5647884419114093e-06  4.4591970451783010e-03  1.3700645366446267e-05  2.1654528520968453e-03  5.2422977454786511e-06  4.7377084045817546e-03  3.3210860217287684e-06  3.1304401428399542e-03  2.1899249162246766e-03  4.8160944418091448e-03  2.4635783373826565e-05  1.8865911452906398e-05  3.5725052143972284e-03  4.0596939449442067e-03  3.2070138559221865e-05  7.0240919789718429e-04  8.1217343742603871e-05  8.0459172310950620e-08  2.4663279142630186e-11  3.2323895714468947e-05  4.0456660897468231e-12  1.0969286737931902e-11  7.6088818579637956e-09  6.7001654618950378e-11  2.8415473189388122e-03  1.2205477685603203e-05  3.6185314050236818e-04  3.8400496254863206e-03  3.6336570209009498e-05  3.5530545035471820e-05  6.4350157836092292e-05  7.9349969491437138e-07  1.6049265469592960e-06  2.0109127470929879e-10  5.3848567987220154e-05  2.5567897219916389e-06  1.1708014479370735e-06  7.2002459111928121e-08  5.9841329471922781e-10  8.6432953965500688e-08  4.5497230811485214e-03  1.0061121723468254e-03  5.5779287346126167e-09  1.4957892503880921e-07  6.1572595474431170e-05  2.8577705076388978e-10  4.0002167206667519e-07  2.7741641020851489e-04  2.7302699324227131e-04  7.1348885131120480e-05  3.9513424902225410e-05  5.7689489285361267e-05  2.0332947782740382e-07  3.4980595497748599e-05  4.1877804221379829e-12  7.6359687110008283e-12  1.0627528549373595e-03  4.6205662313356661e-05  3.6180675089521275e-05  3.0390956076194571e-05  3.0704309228289984e-05  6.6116561639374713e-10  8.7469244986474848e-10  4.2962547932982162e-06  3.7281637183930244e-12  5.8411262358539426e-03  2.3841806400072394e-04  4.2203650959884807e-04  9.2613393738145348e-04  1.9437224748632104e-11  9.8276585854468497e-10  6.3941431585998730e-04  1.7388241340573871e-09  4.7096052895817489e-08  3.8978917883462261e-09  1.6915667821624520e-10  8.5619007453961952e-13  3.9306955710095284e-03  1.4528712791447697e-03  1.3364669993368786e-06  2.6585281693564801e-03  1.7483279787210290e-04  8.5080371590711691e-07  2.2597676950609093e-07  2.3017465626900433e-03  8.6104111700200576e-11  8.6127712783930970e-04  1.1757744773379843e-07  8.1696238636528261e-04  2.9225146569894474e-03  4.2147829751558036e-03  3.4209633375662562e-03  7.0827957325385689e-08  5.8739953409923430e-04  2.5689675887976273e-06  4.8260354831862170e-03  4.4246120046171913e-05  1.6734376567976658e-03  2.9688742684456440e-03  1.3693905024886822e-03  1.8434651802230072e-10  1.9866941644974931e-04  1.2640930543240108e-10  1.9319914484164800e-04  2.1129723038525970e-03  3.7234680876858159e-07  8.3777230927545017e-09  8.1270372941589586e-04  6.1578933167486452e-05  6.6086221397653117e-05  2.5912273178425848e-08  3.5239601551053748e-03  1.0060147408073700e-04  9.3731093070569549e-05  2.2983517132267345e-04  2.2686544866140369e-07  4.6299040957111812e-06  8.4211345996064569e-09  3.0998185083737107e-09  8.9559290952693117e-12  1.3572796473955833e-06  1.4912000663620879e-11  3.9496629158381033e-04  4.5547494219347806e-04  2.3010080032423975e-06  9.0527410929435417e-10  2.1996623066197714e-05  1.9143337391735575e-05  4.2718092365252762e-05  4.0364642943781535e-07  4.8020541205998852e-03  7.0768819033162339e-06  1.3834987259938564e-04  1.4909509940593532e-10  4.4401208379880077e-04  3.6936602318501320e-06  2.7479313077995941e-05  1.1679841226295270e-04  3.6120411759543342e-10  7.4299979517618479e-05  3.6604677873342803e-05  2.4978342745234284e-04  4.7034990021925880e-03  3.6286334154497503e-12  2.7619605567749602e-04  2.1113301992146669e-09  1.3328156663499843e-04  4.2872802714225192e-07  1.1335633591410925e-09  5.2511731369526029e-13  2.3346393721496603e-04  3.9563335301360707e-03  6.2238022855859638e-04  4.4331710353441318e-04  2.1062634158070855e-03  1.8419219023545365e-07  2.1655088156808328e-03  5.5780411256570164e-13  5.2321454092136882e-04  1.3548571907383061e-11  1.1312556120107336e-03  7.5305166572324927e-06  1.3026829123103457e-05  1.0080028632757971e-09  4.2359917706743611e-04  1.9904005811771160e-05  7.6808320134116489e-06  3.5340395860677921e-06  3.9760773244537592e-06  3.8605457023975605e-06  7.2771120963401143e-10  2.2262124223059007e-03  3.2120167249499662e-03  1.4060981505561196e-04  1.6838125669940936e-03  1.5042905981135449e-03  1.4726385603059355e-05  1.0104903945812800e-05  1.3866934834358269e-04  4.2279271786609812e-04  2.0848862649201204e-09  4.8006680236069462e-04  5.6320267127990900e-04  2.3788200703343546e-04  1.2414457160455370e-04  5.2482239234107640e-13  1.5690686732105583e-05  5.8343177756500119e-05  5.7799420171651229e-05  1.0297760046538258e-04  7.7215305116975866e-06  5.3091586986476404e-05  2.9455218091782477e-08  6.8323178338089332e-04  1.0580622249487475e-04  3.7831726567667933e-03  1.9663442053083351e-03  6.7846015444139097e-12  5.8678232113938699e-04  1.1171428935077335e-03  4.1240296881592791e-03  6.4966479849422108e-06  1.3840730708861080e-07  4.2802165716454583e-03  2.7672236457429180e-03  3.0293705013695088e-03  4.2861239221718590e-03  5.7180125938256769e-05  1.5852484793623065e-09  1.1403172850099113e-12  2.4799025194304607e-12  5.4074763814014221e-13  2.1779371761773339e-05  2.0134447794179050e-09  5.0399837943268152e-11  9.6350605623446006e-04  3.3789359016915106e-05  9.4146902529628385e-09  4.1920215549064357e-09  8.1937567590152883e-07  1.8690579938180801e-03  3.3864701858490632e-04  3.8264491239155534e-04  4.3763893010825760e-03  4.9043173064273834e-05  3.5563694746682498e-05  1.8844317574717186e-04  1.1069398403992030e-04  4.5331083758517505e-04  1.9710724288790330e-05  3.1115145446552679e-05  7.8575624029248074e-05  3.4468364699945346e-03  5.1849823343141964e-03  1.1317130183441876e-03  4.4379425833601359e-06  4.8703771148158820e-03  4.3083417319003664e-04  8.6036074941712467e-06  2.6074075499076159e-03  5.8218992955572794e-13  7.6632900374490508e-05  4.0670865847814320e-05  3.4682680550455989e-07  1.1655931162397419e-07  5.2048735690444939e-05  6.4219693061086667e-10  1.1567585220587988e-05  5.4651015685277876e-04  7.3355052161806727e-06  9.6446826828390342e-06  5.3049090537067864e-03  6.5970215812048852e-03  4.5189880553918653e-10  8.8106247528698290e-12  1.0594609434186149e-04  2.2032198936135195e-06  8.4418660694270099e-07  9.3452615790818780e-07  1.1988015592230141e-05  2.3247346579694482e-04  5.5831106949484092e-07  8.3541471037870997e-09  2.4982918294528321e-05  3.1306513108731094e-09  2.8810879585529778e-10  8.9923715922260181e-11  4.0745490127631396e-05  2.6046599684462083e-03  1.2110184786867391e-08  1.9532359244710004e-03  2.9398593797408113e-08  1.8823827353922635e-05  5.4550570790413974e-06  1.8624463293788940e-03  3.9996662450396802e-03  2.1037954147639558e-09  4.7970769421368190e-03  3.6778897611436987e-05  1.7884392896396816e-03  2.0983171322498185e-04  1.0740580274979081e-07  2.2048726138297