<?xml version="1.0"?>
<VTKFile type="UnstructuredGrid"  version="0.1"  >
<UnstructuredGrid>
<Piece  NumberOfPoints="2446" NumberOfCells="4585">
<Points>
<DataArray  type="Float64"  NumberOfComponents="3"  format="ascii">0 0.41 0  0 0 0  2.2 0 0  2.2 0.41 0  0.2404508497187474 0.2293892626146237 0  0.25 0.2 0  0.2404508497187474 0.1706107373853764 0  0.2154508497187474 0.1524471741852423 0  0.1845491502812526 0.1524471741852423 0  0.1595491502812526 0.1706107373853764 0  0.15 0.2 0  0.1595491502812526 0.2293892626146237 0  0.1845491502812527 0.2475528258147577 0  0.2154508497187474 0.2475528258147577 0  1.1 0 0  1.1 0.41 0  0 0.205 0  0.55 0 0  0.55 0.41 0  0.275 0 0  0.275 0.41 0  1.65 0.41 0  1.65 0 0  0.8250000000000001 0.41 0  0.8250000000000001 0 0  1.375 0 0  1.375 0.41 0  1.925 0 0  1.925 0.41 0  1.5125 0.205 0  1.7875 0.205 0  0.6875 0.205 0  0.9625000000000001 0.205 0  1.2375 0.205 0  2.2 0.205 0  0.4687002074688797 0.2068568464730291 0  1.99375 0.2152743902439024 0  2.0625 0 0  2.0625 0.41 0  2.2 0.3075 0  0.4125 0 0  0.4125 0.41 0  1.7875 0.41 0  1.375 0.1486128048780488 0  1.5125 0 0  1.7875 0 0  1.5125 0.41 0  0.8250000000000001 0.2613871951219511 0  0.9625000000000001 0.41 0  0.9625000000000001 0 0  0.6875 0.41 0  0.6875 0 0  0.1375 0 0  0.1375 0.41 0  1.2375 0 0  1.1 0.1486128048780487 0  1.2375 0.41 0  1.65 0.1486128048780487 0  1.126715909090909 0.2793064024390244 0  1.676715909090909 0.2793064024390244 0  0.8517159090909092 0.1306935975609756 0  1.348284090909091 0.2793064024390244 0  0.34375 0.3032389320646208 0  1.894702181800738 0.1282910975492754 0  2.092797818199262 0.1282910975492754 0  1.85625 0.3075 0  0.61875 0.3075 0  0.61875 0.1025 0  0.3648540804333487 0.1240075933101478 0  0 0.3075 0  0 0.1025 0  2.099172119769978 0.25625 0  0.48125 0.09238439620688085 0  0.5781001037344399 0.2059284232365146 0  0.48125 0.3196743479159776 0  0.7265881057911006 0.3055240343720796 0  1.99375 0.08395950269330846 0  1.459960956013612 0.3075 0  1.569025960719943 0.2986889805672169 0  0.75625 0.08213100772579164 0  1.03125 0.3278689922742084 0  0.923871252904788 0.3078247185783941 0  1.959375 0.3126371951219512 0  1.749222215368287 0.1025 0  1.275777784631713 0.1025 0  2.2 0.1025 0  1.225938124459196 0.3075 0  1.550777784631713 0.1025 0  1.000777784631713 0.1025 0  1.44375 0.07430640243902442 0  1.16875 0.07430640243902437 0  1.899250267340833 0.2229966846119207 0  0.1020898364287272 0.3140258291809757 0  1.766482954545455 0.2934032012195123 0  0.3405058858996321 0.2119987970531874 0  0.7710785630958338 0.1710968191298857 0  1.046078563095834 0.2389031808701144 0  0.2 0.3400647632937836 0  1.421109702350723 0.2261157654379721 0  0.2800464974185557 0.08982544815605742 0  0.098916018031319 0.09171660955420841 0  2.13125 0 0  2.118919042110979 0.3422084711244843 0  1.30625 0.41 0  0.89375 0 0  1.597888256393107 0.2173787389261347 0  0.20625 0 0  1.829299675393195 0.07400700849299596 0  1.71875 0.41 0  1.16875 0.41 0  2.038220665644273 0.332420740103091 0  0.34375 0 0  0.417496017710808 0.2696595573092803 0  0.2 0.07687845740457822 0  0.9295982307099278 0.1343158415898188 0  0.07390688010811153 0.1697064032433452 0  0.5238366813727013 0.2578302467013575 0  0.05452951551825875 0.25625 0  0.5229630068078351 0.1548816096928243 0  1.452769549894695 0.1548122580621249 0  1.369219062229598 0.07430640243902442 0  1.30625 0 0  0.8504409521244898 0.3356935975609756 0  0.8821881244591965 0.205 0  1.720943423819132 0.1714577452753128 0  1.157188124459196 0.205 0  1.094219062229598 0.07430640243902437 0  1.03125 0 0  1.304056576180868 0.1714577452753128 0  1.67579304192913 0.07430640243902437 0  0.2751941921308361 0.3346083473122598 0  1.209670467133757 0.1362100266964769 0  1.025335513626278 0.1700681449722324 0  0.7562500000000001 0.41 0  1.58125 0 0  0.7567170593862014 0.2409196493502535 0  0.6926714215682891 0.1272249611432207 0  0.4139715849905988 0.3397932387114203 0  0.9840787304190477 0.2717749043358119 0  0.06875000000000001 0.41 0  0 0.35875 0  0.9281250000000001 0.06276726142697993 0  0.5507396469029935 0.3219409231578227 0  0.5504468037989405 0.09136885600634273 0  1.58125 0.41 0  1.631724228912893 0.3381867502687533 0  1.825608881788174 0.14499488549201 0  1.85625 0 0  1.44375 0 0  1.44375 0.41 0  1.85625 0.41 0  2.13125 0.41 0  0.7562500000000001 0 0  0.89375 0.41 0  0.4812500000000001 0 0  0.34375 0.41 0  0.4812500000000001 0.41 0  0.20625 0.41 0  0.06875000000000001 0 0  1.16875 0 0  0.61875 0 0  0.61875 0.41 0  1.03125 0.41 0  1.71875 0 0  1.99375 0 0  1.99375 0.41 0  1.340625 0.3489494290853124 0  1.134375 0.3489494290853123 0  1.700180620188976 0.3438659752031281 0  2.135782184673599 0.07126652247502523 0  1.668441847249787 0.2129203728327609 0  1.295782514339747 0.2378437748815763 0  0.8233075729931248 0.06842334294821524 0  1.409375 0.3520314716057996 0  0.403505597322782 0.182067236678212 0  0.378125 0.05794951541303489 0  0.3043468223249023 0.1518321115979534 0  2.129248544730567 0.1906135162504124 0  2.060771381434487 0.1989445750470348 0  2.013252586573865 0.1496169464686054 0  1.942766402200229 0.1734448904596831 0  1.895522487186454 0.06076163953489683 0  2.069553871656643 0.06605731020975725 0  1.274680914880868 0.3520219391081363 0  1.614713220494657 0.09473434380863296 0  0.7899021319497519 0.3149123934144827 0  0.69518737419149 0.0634051089053758 0  0.2971740475496061 0.2592172353407536 0  1.72990325744076 0.2380068107952482 0  1.356580098625191 0.2120393231351682 0  2.034370752044885 0.2668681600792073 0  1.51768709249349 0.3426260931494756 0  1.561883724969884 0.1650446847858835 0  1.197344062229598 0.2523725417393646 0  1.804085235518364 0.3468178408964637 0  1.817887819205233 0.2589243285818559 0  1.905897727272727 0.3485060975609756 0  0.6719798073392919 0.2688965171178177 0  0 0.05125 0  0.653125 0.35875 0  0.6396896119294488 0.1627615407790282 0  0.4274150154087412 0.1242548552168279 0  1.192836486056382 0.3562350748565544 0  0.8279124365364005 0.183856489168822 0  1.097485222388854 0.2083571153401724 0  1.28257088594801 0.2944411014911587 0  1.474860187679412 0.2504218616229368 0  1.406767003493824 0.2829282258560709 0  0.446875 0.04619219810344041 0  0.515625 0.04585361801037557 0  0.592043440706648 0.05125 0  1.845656689180403 0.1998310418452388 0  2.144958525570388 0.2909790873294231 0  0.6171090763650112 0.2492366900333857 0  2.2 0.15375 0  0.5145586920831158 0.3648371739579888 0  1.57794966442982 0.3540357145964566 0  0.721875 0.3633107922168974 0  0.0496154796471391 0.333125 0  0.5843750000000001 0.3662560860076676 0  0.5810878747760798 0.1474002776121195 0  1.508991196088596 0.1421783375065625 0  0.8840670607017558 0.2640994375393898 0  0.09776612425612034 0.2204896805326566 0  1.50436820029908 0.06143401634903343 0  1.223857000523521 0.0823554862453532 0  1.153316824384777 0.1289850171317837 0  2.148922302309752 0.1258841779285271 0  0.309375 0.04312325590431198 0  1.621993280276081 0.2841214267927899 0  1.550118654119087 0.2461998729100966 0  1.327182649291491 0.1216967252533594 0  1.051977450479407 0.1221382572915816 0  1.753125 0.04556020050186112 0  1.271875 0.04556020050186116 0  0.9816084133102366 0.05126138213476004 0  1.039051841454368 0.0572224914831029 0  0.9719230514536006 0.3480477870845102 0  1.94956388244759 0.1180512551534177 0  1.949997712993411 0.04965831614304109 0  1.771961817615021 0.1530278789497521 0  1.909246823951428 0.2812757146784527 0  0.2459536687882397 0.04668633953831142 0  1.948575539857022 0.2445328248721197 0  1.697271520964565 0.1233917627620729 0  0.7964897648514618 0.1211426571931604 0  1.065625 0.3689344961371042 0  1.085849084308977 0.3170853572226867 0  0.4702981435440001 0.260434880697798 0  1.577403511714593 0.05463601888079143 0  0.05622663515370135 0.05493816910862376 0  0.3267207591099919 0.3566194660323104 0  0.9003051618565143 0.3564049499960621 0  1.751571320346033 0.3651102912045228 0  0.1583785085108421 0.2994699345738728 0  0.1455283439499995 0.3542795598723423 0  2.2 0.35875 0  0.2347662494194072 0.298325008655211 0  0.1527284455616188 0.1065771775690181 0  0.1382139529076665 0.05427454456341477 0  0.8749341636311069 0.05110114999892954 0  0.643661668713109 0.05693499781019222 0  1.466879772203159 0.3611261772912453 0  1.990280163552011 0.3564754268533217 0  1.17471064520912 0.2990917256188288 0  0.5202693090594349 0.206382495511728 0  0 0.25625 0  2.2 0.25625 0  2.2 0.05125 0  0 0.15375 0  1.853978576207987 0.35875 0  0.9787513713939683 0.1487523696999336 0  0.240625 0.3722153812029779 0  1.515638456102889 0.2882700110184686 0  0.09048297387599738 0.3637717362208066 0  2.150453692751374 0.2387066338105111 0  1.323782677156475 0.04897634338873398 0  0.8074131292871642 0.3624701995505916 0  1.409375 0.03715320121951221 0  1.406484531114799 0.1087852750766809 0  1.134375 0.03715320121951218 0  1.627401732573545 0.04552157221025036 0  0.1170173172005315 0.1427610859166811 0  2.045405893604797 0.1105340662939892 0  1.255408269734577 0.1577307500159216 0  2.028125 0.03707597992059326 0  0.4743610090857199 0.1421513964721819 0  0.9354010469015898 0.250631300585664 0  0.04420832937638274 0.128125 0  0.8922386349349938 0.0992956419364831 0  0.1197849154434487 0.2663398672460083 0  1.248258025468107 0.2565907092181813 0  0.3746885856929528 0.370723531618974 0  1.203125 0.0366132337404304 0  0.5724622277005015 0.2751253816079333 0  0.3365425205162783 0.08395777655057959 0  2.072662025974815 0.2975086504196739 0  0.4581080832182547 0.3648371739579888 0  0.3874522734668214 0.2295447548840689 0  0.7827853612484443 0.04106550386289586 0  1.887722846421017 0.1760882698830035 0  1.472640588990488 0.1118278026240017 0  1.865937103925594 0.2604137786483804 0  1.463913572748262 0.2030442564990043 0  1.376426316059077 0.3186741374914345 0  0.6641993820150034 0.3141688596240831 0  0.2943117490824315 0.2130987422685822 0  0.3478153998082709 0.1666571081082676 0  0.3427990510599805 0.2575950027870776 0  0.7997118993855807 0.2216171933356366 0  
[...]
<PointData  Scalars="f_10-1"> 
<DataArray  type="Float64"  Name="f_10-1"  format="ascii">2.3422381423287799e-04  7.9370997299658106e-06  2.1071123204877821e-13  3.8409684719465456e-13  1.6972883671597400e-03  1.2248188884084422e-03  6.6453220444441974e-04  1.7966694183642982e-04  7.5725864664309280e-05  1.0468029080903815e-04  1.7784964246433905e-04  4.6953565109853932e-04  1.1529205944856979e-03  1.7274692559643681e-03  5.6079772520949448e-05  4.2610513688884621e-04  8.0253464903520417e-05  3.7095190227692969e-05  3.3640512008105941e-03  1.3261629145591329e-05  3.5688660826688223e-03  1.4902882258817051e-07  5.1759340267507162e-08  2.0489508726523778e-03  8.2250013810168321e-05  4.2170262535478557e-06  1.6926703618014622e-05  1.7104792686666551e-10  3.4107275453202754e-10  9.5776911152452684e-06  6.6812283649487140e-08  1.6403614791321028e-03  1.2841113800340909e-03  2.8182885836257451e-04  4.4161378080444633e-12  1.8637786180945308e-03  6.8331349996825102e-10  6.0994672910902774e-12  1.0315948673730988e-11  3.2024964466291143e-12  2.1988417328006717e-05  3.7236639008037869e-03  7.5209958893643717e-09  4.3833470127648418e-05  5.8767149618273131e-07  3.1986509977841170e-09  1.8740079696963720e-06  2.3284688925294243e-03  1.1345508626896394e-03  8.8552871186295645e-05  2.7864971334462373e-03  5.7026165902539678e-05  9.3236704071612345e-06  1.8525788585586846e-03  2.0312351061143502e-05  4.6347971365086788e-04  1.0504847248996146e-04  6.8647053423543891e-07  8.3313763964987199e-04  5.9752763092055049e-07  5.8392230731309160e-04  1.0204448219208460e-04  3.2874746288329331e-03  4.1605892813544868e-09  3.8263413163743451e-11  1.2965664672749460e-08  3.2937464292092564e-03  1.6631168548151390e-04  3.8910646803194703e-04  1.4766891753084213e-04  2.3061586842278566e-05  5.0906456653421190e-11  1.1339076299495923e-04  1.6110881366191226e-03  3.5326767105948406e-03  2.9642535599253405e-03  2.5696917646258140e-10  2.0428445168316423e-05  3.8033864510704358e-06  2.0185082201694968e-04  1.3159352630094960e-03  2.0837052534768063e-03  1.1801555385881791e-09  6.7367158879073756e-08  7.6525887997639129e-05  2.2874284801586077e-12  3.5269558843565414e-04  2.3078619153189689e-06  3.4729596688660096e-04  7.3063201419329635e-06  1.1561031904739954e-04  6.2412608121039162e-09  4.2686963995044154e-03  9.5691818033677788e-08  1.7329149788781533e-03  1.0464990305656559e-03  1.1953577052993400e-03  4.5659465088377788e-03  3.8680093621341903e-05  5.9775694406338437e-05  2.2172086068888799e-05  9.0318530178646034e-13  1.4703749504394039e-11  4.4417999222839838e-05  8.9724645170615185e-05  2.4814390388362032e-06  1.1203699053893809e-05  8.6086399941332221e-09  3.7676751108170082e-08  2.2371137411256878e-04  1.3253167180947625e-10  1.6449421720616850e-05  2.8465471777681787e-03  2.7368575242398087e-05  6.1086470977401617e-04  5.4146330829227165e-05  2.9672647132659158e-03  1.4447966327839817e-04  4.7381625262176916e-04  1.6749420566858010e-05  1.8637605055487400e-05  9.3036607451409731e-06  2.4155629793934006e-03  1.4808283896544964e-03  2.1350499398481925e-07  5.3387056389167997e-04  1.7077802283078716e-04  7.7501499508374756e-05  1.1812441422039045e-04  1.7755975390848486e-07  4.0573752996608771e-03  2.0207507912085640e-04  7.8598160067497986e-04  2.4364035118956103e-03  1.9078457700337204e-07  2.2446436101418083e-03  4.0607185619616506e-04  3.6868283532414409e-03  1.6914613214932155e-03  5.5923066467425462e-04  1.8381545816410506e-04  1.8660491519716384e-04  3.4734667193330043e-03  1.0757143503551812e-04  5.4503986110301185e-07  8.7237639964797009e-07  2.1671469630575084e-08  7.4308998116873918e-10  1.5394651815529226e-06  6.1126327002018049e-06  1.8000360178494547e-09  1.7174711439090295e-12  6.9103018608725474e-05  1.5784243293173194e-03  2.9113477271677478e-05  3.7309215190287088e-03  3.5950884545221111e-03  3.0112624536171662e-03  8.2817070902787348e-06  3.7178750241240188e-05  4.5959077353106415e-05  3.0874916185101900e-03  7.2667520923468511e-04  1.3656313773150572e-08  2.9360349430016676e-11  6.5218303755965510e-11  7.0567788320292837e-05  5.8692134884938321e-04  2.1727876363370692e-07  5.9860973683922779e-12  6.9631501780468570e-07  1.8213947925356522e-04  1.8083240951117775e-04  2.6951457621199744e-05  1.3324655999718425e-03  3.8969539480983146e-05  7.5236441654838969e-04  2.2160756735066763e-11  1.2758220973607193e-10  3.1988741034997020e-10  1.9582285142889285e-09  1.5911206518601141e-09  2.8749431901441730e-11  1.4917675244968437e-04  7.2429600820887654e-07  2.7542057717741537e-03  1.1546516802589544e-04  2.1338757336530510e-03  2.2602982787518973e-07  8.3647630977636196e-05  2.5029424765673756e-10  5.9287902163728978e-06  3.5061557885630399e-06  4.7825910847848556e-04  2.4405181657431276e-08  3.6540072491333536e-08  2.4492870806302803e-09  2.8562120737177944e-03  1.1494452977639675e-05  3.1647611809883587e-03  6.8944583173115098e-04  3.3319454527651739e-04  3.2905800437719372e-04  1.2431760318151780e-03  7.8845518703926100e-04  2.0972234190206593e-04  1.8935006774201721e-05  4.8037290169073103e-05  3.5638678583880513e-05  4.4766015520356713e-05  6.0893236477831953e-05  1.8938076090001676e-08  1.3550055099489696e-11  2.6926062296653845e-03  3.5233473835567977e-12  3.5721735969626170e-03  1.7662382525145176e-06  2.8744345861037805e-03  4.3987316914840673e-04  3.3604751123351003e-03  3.9697933970005112e-04  6.6808643601606137e-06  2.1354673166582797e-03  1.8538960162744694e-04  2.4262194386199906e-06  8.9481350876811105e-05  2.7548113794463412e-04  8.9841306522267548e-12  2.0790252951123564e-05  1.6188483797854750e-06  5.8273343028729354e-06  5.7534706814442711e-05  4.0722922781234012e-04  2.1208978107559527e-08  3.0307711750368786e-05  1.5033438665269263e-04  1.5274556856764241e-04  1.5684292392312729e-03  1.0988511714148304e-09  3.4419202747499062e-10  6.9143540033457245e-08  4.6028073037085349e-09  1.8696320165091286e-05  2.0099430460315968e-09  2.3075031732845906e-07  4.7250257790335535e-04  7.9463164990858264e-04  1.0078536926861697e-03  2.9258763579521523e-03  6.7147976715966818e-07  1.2493607603021765e-05  3.8529888238247314e-03  1.9691588527955394e-03  4.8974515985085085e-08  5.0731604611216818e-03  3.6658885530208769e-03  1.3908091570313399e-12  3.4036839702707368e-03  3.5014405511556477e-05  1.4812697197308974e-05  1.4356506395130485e-04  8.1456873807678721e-05  9.8733465947827239e-06  2.8147036244487562e-10  5.6971017198037749e-04  1.7148091378311459e-03  1.3009569830184088e-04  4.3292306252102837e-12  8.7848667454247474e-13  4.4942610565803141e-05  6.4792024974191358e-09  6.9465557269455126e-04  3.7172547703730281e-03  9.4897181512260632e-06  1.2464259315371226e-03  1.3792629433301728e-11  1.9276386717720041e-05  2.4678446460854450e-03  5.2975124276446878e-06  1.9488801603672441e-05  7.2793752712545186e-05  2.2905683179154743e-07  4.4954097632181152e-05  1.0481442000929621e-10  1.6950698078436379e-04  3.6923026226289909e-11  4.1538000667120723e-04  1.8152044196676519e-03  3.2826909236280146e-05  3.4743187330882775e-04  3.0737350590013912e-03  3.0517361519838296e-04  3.7759529696554089e-03  4.6072184857157822e-05  3.1494943959814270e-03  7.7876561647040370e-05  8.2689086611892282e-11  3.6847030476531090e-03  2.1676594512537216e-03  1.0265266630065334e-04  6.9360536840079507e-09  8.2875935936062181e-06  1.3014848615798990e-08  1.9521021841025453e-05  6.0799691904836334e-05  3.1962867769069194e-03  1.5081339399691295e-03  1.0850557419245109e-03  2.2651295222219530e-03  1.8643529134181021e-03  2.4490589206630702e-07  9.3340099642822372e-08  5.4308174134099041e-12  9.5089537276419603e-04  4.5663749966494790e-04  1.3579103087171468e-03  1.4373655619161236e-03  1.0142725248925041e-03  4.5929999238003776e-05  2.8392574230197149e-04  2.6908694271935180e-11  1.4718004416490636e-06  1.7180839622370659e-03  2.3991651454967878e-03  3.4810044160246596e-08  8.3441716144375344e-05  7.3851948371364195e-10  5.4992051117627147e-12  4.2320586758695297e-12  2.7930138200520933e-11  1.0502820546126971e-05  9.0057518536722521e-05  2.8624299852944781e-07  3.1429615866041310e-08  4.1686494932990075e-10  1.0233161229863323e-05  6.6826213552575363e-05  3.3760355266625191e-04  9.7284367989860156e-07  1.2378460596300944e-06  1.0337356780117748e-06  1.8114890361616298e-03  2.6148098906436253e-08  5.0139730276061826e-08  9.2363286325825543e-04  1.1213379476222387e-03  1.2173573516456763e-12  2.1190737806846137e-12  2.9589240310783061e-04  1.8054826443542074e-04  2.6439034594493583e-03  1.1055047685157497e-03  9.1242464565543656e-04  1.3573501871983717e-06  8.2250226412327299e-09  5.1819654771779408e-09  3.4161703427520889e-07  5.6663279372570663e-10  2.1218761550177026e-03  5.4147552047041383e-05  3.6926580868787393e-09  9.4066821425314572e-05  1.4235972699922565e-07  2.6955853054773640e-07  2.8684887183233731e-04  8.5600612362425721e-05  2.5274342568737040e-03  1.1437746096749524e-10  1.3683462526486900e-03  4.9991014468928351e-06  1.8564034567751235e-04  4.9536307241514765e-11  2.5763424287490964e-06  1.3686298678622151e-05  7.1658589182473174e-04  9.8498944393165264e-04  2.9884549254046049e-06  2.5698782823173030e-03  3.3256741878644326e-03  3.4175788121656040e-03  1.5743315006490897e-03  1.9297471294381829e-04  1.9423360891242846e-03  7.5677142105560655e-04  4.5819681159246252e-04  6.6687011632865116e-05  8.7445181142209401e-12  1.2611488258370971e-04  1.1879050121432525e-10  2.4441991955042783e-03  7.7904355606090333e-10  2.2525864362189767e-09  3.6142207658309260e-10  1.1472224542806663e-09  4.1476835759364275e-06  1.0970601645761533e-07  8.9615165654162144e-08  4.3735702444347463e-07  8.0461887517720846e-06  2.2844992556628877e-03  3.2541317303913181e-03  2.3839111849550100e-04  5.8981685588656346e-11  2.6450403905577271e-05  8.3286582648567538e-04  1.6423916315724178e-03  1.5456003277046556e-03  4.6226506112130986e-05  4.1772112154977916e-03  2.5901252914210812e-08  2.3599693321401142e-04  1.5739860728045214e-03  3.1000658630352227e-03  1.1531984316668062e-05  5.1266625721482136e-05  6.4670714582601148e-04  2.9656882146016696e-04  8.5874077391955932e-11  2.9355723916435229e-05  3.7834808394721360e-03  3.2679661029880736e-03  1.0622075712657844e-05  3.6783151250404742e-03  8.8580146699356629e-04  9.6694212879024424e-04  2.2048419211629844e-04  7.9614389102409871e-04  3.1621710592963289e-04  3.2671933866822568e-03  2.3839964289580806e-03  2.0476385921598052e-03  1.1406405944997595e-04  8.6579101404008514e-07  1.4709812209421858e-07  1.8913918183199754e-04  1.3159970808776478e-07  9.5903987461643195e-05  3.1941731934420250e-05  9.5998785463083878e-06  3.0949487190497959e-04  3.8667114881698963e-07  7.2264043176856579e-05  8.2231625776164047e-10  3.6479874508170205e-05  3.7443261897786967e-03  1.5231870068733191e-04  1.2988444799872309e-04  2.1063833130959175e-05  4.3477523000720764e-03  1.9068020944033335e-06  5.5627394518963554e-07  2.6063237452346412e-03  5.1793775510767173e-05  2.1972971484890413e-03  1.6180846209108821e-05  2.5312091344871558e-03  4.6737995292417248e-07  2.2111104137341508e-06  2.5053650252732544e-06  3.5479511978564249e-04  1.5837519334138529e-09  2.9057261511671174e-03  1.2854587995920799e-10  3.1149754880652303e-10  4.2610183179127242e-05  1.0029889241135416e-03  3.4499698129755535e-11  3.2349900657127786e-11  9.5051254265793149e-12  6.2898355131199477e-08  1.4905330266173103e-06  1.0595466208756117e-03  5.5138439754212729e-04  9.8389214072114816e-04  6.6873709847085146e-05  1.1354324542350185e-05  7.5400394551647734e-04  1.1712041318532866e-04  1.1618471978761245e-04  8.6536139634803218e-05  1.0745661410130388e-04  4.1599373996359342e-12  1.5081785341994894e-11  1.0617163173839913e-04  1.6097672114437717e-09  8.1446350184340243e-12  2.7077296236698695e-03  4.0244111476794744e-04  1.5019427040060694e-03  9.4801732747435109e-09  4.2318419289831686e-08  2.5815298607422430e-03  2.6879643047080771e-05  3.7315079091050289e-03  3.4794919708046188e-04  1.3178590336920622e-03  1.8841031237826461e-03  8.5486381172633619e-04  3.4762308445995702e-04  3.1411175888912125e-04  7.4402385234376175e-05  2.6671727596174536e-05  3.2160807253951792e-05  7.0570933166055644e-04  2.7726039816181153e-05  2.1658582271250247e-11  1.5171073372279557e-04  2.2509591712694317e-03  3.4907971605785209e-03  1.6547218961847333e-03  6.5983281664769929e-04  2.7865339981596195e-05  1.8660364931059402e-05  3.5477594701494564e-03  3.3243460654415703e-03  3.4168297986957382e-03  3.3181719739470818e-03  1.3583863996707997e-08  3.3078561720605262e-05  1.5827365812854852e-03  8.6958527116429149e-05  2.4316076809516895e-04  1.6575055363788284e-04  3.8586203206350922e-05  7.0195835259381657e-08  6.2305020558057813e-10  2.6389218581410709e-10  1.4198098711338077e-09  6.7418162232727859e-05  4.7473111500193966e-04  5.6171340936449369e-05  3.4572955045375812e-05  6.4296137719182222e-06  6.8131245583917299e-05  3.7049696501902629e-13  2.1942281268444098e-12  4.6402442867084876e-05  2.6914484039686852e-06  3.4427707390237116e-06  1.7724754554241437e-08  5.6543897078639770e-04  7.3869871003874128e-09  2.6279491645173907e-03  9.8615827999433682e-06  6.3355875743334992e-05  7.2512746451414209e-13  9.1919015370402446e-05  3.7435704442823590e-03  2.5227811262880994e-05  3.6755857278750570e-03  8.6853353413698111e-06  3.3614865305575392e-03  1.2008688535926471e-05  1.0987612352805782e-03  5.0782764830030549e-05  7.5675426848584700e-05  1.4543757524596746e-05  3.2205795502936127e-03  3.4874540148262796e-03  4.1151530535786831e-05  3.2887123197453268e-05  2.9308139562854562e-03  8.5810079620221461e-05  2.7003306179524861e-05  9.9775811548905258e-08  6.9249112555657605e-11  1.3955080376049289e-05  1.3169578545479675e-11  1.4208705248941811e-10  7.9219270206499515e-08  2.5111459490389094e-10  1.9034525274550456e-04  1.4949698330638330e-05  3.3909055493504492e-04  1.3141828188059014e-04  1.2041160920882905e-04  1.5692219952381114e-04  5.0945703958279445e-04  5.7246360010989418e-06  1.1434504296306111e-05  4.9965056107318758e-10  2.2011022692560050e-03  2.0681816153189784e-05  1.2240123310662623e-05  3.9410543146779827e-07  5.4442769547972319e-09  3.3423037396261882e-07  3.6111562816611167e-05  2.2853634680929497e-03  1.4442606271128622e-08  7.3887891969182676e-07  1.3289486073710094e-04  2.6323955421590987e-09  4.1284785492737504e-06  2.6070900094126619e-03  1.1919876378376189e-03  1.1973755245964399e-03  1.0260663924226817e-04  3.3686722971445282e-03  2.4147612600167569e-07  3.1714564143390956e-03  1.4461405540759433e-11  3.0830059604967679e-11  2.7469761391115218e-04  2.9522675490646967e-03  6.4132151239876337e-05  1.2583355738386597e-03  2.4524822552448374e-04  3.3622992614582970e-09  3.3482843722850734e-09  1.7921366537529829e-03  4.2164541891751647e-11  1.9041615151738741e-05  3.1190282487561453e-03  2.8569285873204981e-03  1.8279398112808418e-03  1.8830700212008451e-10  1.0817216045018891e-08  9.4992768061774688e-04  1.6325238970050572e-08  3.5290600352024526e-07  2.1715895897028339e-08  5.1411588389268108e-10  8.2376769205345781e-12  1.3755528951347982e-04  9.5767867945013819e-04  2.3189616241294134e-06  3.9897848952822772e-04  1.8633097938330200e-03  1.1628397346929289e-06  3.3791797473728766e-07  6.0455792721885452e-05  1.0068710607736875e-09  1.8593425079379638e-03  1.2200952120869799e-06  1.7121508364940194e-03  2.5869080760658968e-04  1.1368443679048574e-05  3.4704641165312337e-04  7.2870949422744130e-07  3.1182439897491131e-04  6.1073611628895910e-06  2.4366948281717731e-05  3.3742345800766436e-05  4.9041808211337280e-04  6.9816846098330081e-05  1.9350267179372672e-03  2.1213649188080536e-09  3.0824476207704883e-03  1.3095145689948002e-09  2.4914126958814877e-04  5.9574767460574603e-04  4.0254030827238775e-07  4.2670072543596444e-08  2.0359587708804400e-04  4.2944870872453958e-04  5.9256571190082993e-04  1.5702579573133983e-07  5.4987919231328297e-05  2.5518996183508544e-04  3.9659173255527416e-04  5.5563490209754418e-04  6.7470948043388591e-07  4.4420042625292867e-06  5.8506098524305301e-08  2.3168573350008503e-08  5.7818305129674421e-11  1.2212381803461142e-06  1.8343078636886499e-10  8.8371637384214101e-06  9.4402344667682099e-06  4.0990490334372261e-06  2.5179369432320868e-09  1.6074893165391428e-04  3.0954601772420608e-03  3.6289231126954151e-03  3.4622917875536443e-06  1.2945627831148432e-05  3.6535992631687116e-03  3.2955259446954405e-03  5.3886161654747904e-10  2.6434842584365232e-03  3.9796528625993602e-05  3.8612189915306389e-03  6.0487921572600891e-05  4.1574900553119896e-09  1.6109314081484112e-03  1.0041980402700063e-04  2.6991579336980557e-03  2.0552931894655991e-05  1.3985661605045023e-11  2.8580801312583053e-03  4.4571909924514999e-09  3.6739312492138084e-04  8.1689759705673419e-07  8.9850630646466656e-09  4.4482494975657568e-12  1.0093849779882660e-03  8.9871672141735750e-05  6.2884900979048625e-04  6.2033870662651978e-04  9.3859753760402510e-04  1.0513596929363484e-06  1.2450860357325990e-03  2.4147111508218962e-12  1.4132995915446180e-03  1.1796758685117652e-10  2.0281634356645535e-04  3.8529284652298037e-03  5.8411128412931227e-03  6.7452555532753000e-09  2.2215768244113546e-03  5.4932323834446490e-05  2.5713767495394108e-05  1.8945962146452350e-05  1.3759356666175903e-05  2.9399967164874388e-06  7.1009642531366808e-09  9.1503913547427763e-05  1.3934423771420879e-04  1.4382054727588060e-03  1.5611449390191313e-03  1.5272653123233905e-03  7.0963383565033391e-05  4.1638605525876040e-05  2.7653275800661845e-03  9.8895403369598717e-05  1.0010054903788237e-08  1.9901490202678868e-03  2.7378490393136462e-03  3.1351644630027466e-03  3.0251596804351287e-03  2.8492501301970056e-12  5.2855264608002014e-03  2.9370721263756726e-04  2.2728610068528039e-04  2.3103611689510601e-03  8.6449166581972715e-05  2.6283117222448320e-03  5.1756738057709580e-08  2.2619153368866368e-03  8.0434382503994002e-04  9.0245460591758582e-05  1.1109905696259506e-03  8.4831177355184163e-11  9.3349769501740882e-05  1.9675243585061748e-03  6.1110078855806490e-05  1.0653647374154388e-05  1.0200649126974973e-06  6.5337807967223238e-05  6.1542761658375236e-04  3.5699286942246131e-04  5.5595308104456667e-05  2.3542005957726221e-03  1.7872573474589801e-08  1.3019750374704812e-11  2.2432343956531345e-11  6.0316757917748347e-12  3.4646277746142092e-03  1.1499152466253168e-08  5.1942520084671723e-10  5.9480123795423721e-04  1.6427524004642724e-05  1.5763382030531150e-08  7.6885774497711344e-09  1.3280502406684006e-06  1.4691682369546029e-03  2.3874806946687439e-04  1.8276342316410677e-04  4.1103651517517849e-05  9.3276675161131707e-05  3.0449069808348222e-04  1.2170269289427888e-03  1.0137077682391212e-03  2.5909806502778334e-03  3.6184539439655960e-03  3.6360716724280337e-03  4.3591010826888509e-05  1.4720303908029635e-05  1.9610794484082622e-05  9.5288036615006691e-06  2.3996143434301255e-03  1.5281543024720281e-05  1.2461320904401225e-04  3.7438008388805538e-03  8.0916811510887618e-04  3.9115943866046699e-12  5.8159501114252365e-05  9.9233975133787997e-05  2.7402943973420503e-06  1.0730984996507613e-06  2.5842424261679595e-03  2.0104981442770772e-09  2.6289888709583772e-04  2.4467571437882395e-03  1.5858699748285790e-04  2.3048174209084026e-03  3.1459167713904482e-05  2.1385469600807130e-05  1.7175297860207681e-09  6.5314774842613071e-11  3.3666777503197297e-03  7.9394215425995208e-06  4.5347819760289821e-06  3.7612857470919814e-06  8.5411501173692064e-05  9.7090667512672978e-05  1.3588378568417016e-06  3.5500692331511539e-08  3.3720627708672072e-03  3.1790113258174373e-08  7.6707545844867574e-10  2.3699105706145136e-10  3.6746004437342287e-03  6.9582878756244669e-04  1.1533463664728843e-07  1.2697724955949580e-03  7.2897327091541249e-08  2.2993583541601085e-04  3.2853404266666000e-05  8.2474242758951561e-04  3.7428221929367368e-05  7.3456261694296553e-09  1.6646252282939832e-05  2.3922409766014604e-04  1.5309868240196197e-03  3.0804152071581929e-03  4.7944899894097979e-07  1.3599633493801