<?xml version="1.0"?>
<VTKFile type="UnstructuredGrid"  version="0.1"  >
<UnstructuredGrid>
<Piece  NumberOfPoints="2446" NumberOfCells="4585">
<Points>
<DataArray  type="Float64"  NumberOfComponents="3"  format="ascii">0 0.41 0  0 0 0  2.2 0 0  2.2 0.41 0  0.2404508497187474 0.2293892626146237 0  0.25 0.2 0  0.2404508497187474 0.1706107373853764 0  0.2154508497187474 0.1524471741852423 0  0.1845491502812526 0.1524471741852423 0  0.1595491502812526 0.1706107373853764 0  0.15 0.2 0  0.1595491502812526 0.2293892626146237 0  0.1845491502812527 0.2475528258147577 0  0.2154508497187474 0.2475528258147577 0  1.1 0 0  1.1 0.41 0  0 0.205 0  0.55 0 0  0.55 0.41 0  0.275 0 0  0.275 0.41 0  1.65 0.41 0  1.65 0 0  0.8250000000000001 0.41 0  0.8250000000000001 0 0  1.375 0 0  1.375 0.41 0  1.925 0 0  1.925 0.41 0  1.5125 0.205 0  1.7875 0.205 0  0.6875 0.205 0  0.9625000000000001 0.205 0  1.2375 0.205 0  2.2 0.205 0  0.4687002074688797 0.2068568464730291 0  1.99375 0.2152743902439024 0  2.0625 0 0  2.0625 0.41 0  2.2 0.3075 0  0.4125 0 0  0.4125 0.41 0  1.7875 0.41 0  1.375 0.1486128048780488 0  1.5125 0 0  1.7875 0 0  1.5125 0.41 0  0.8250000000000001 0.2613871951219511 0  0.9625000000000001 0.41 0  0.9625000000000001 0 0  0.6875 0.41 0  0.6875 0 0  0.1375 0 0  0.1375 0.41 0  1.2375 0 0  1.1 0.1486128048780487 0  1.2375 0.41 0  1.65 0.1486128048780487 0  1.126715909090909 0.2793064024390244 0  1.676715909090909 0.2793064024390244 0  0.8517159090909092 0.1306935975609756 0  1.348284090909091 0.2793064024390244 0  0.34375 0.3032389320646208 0  1.894702181800738 0.1282910975492754 0  2.092797818199262 0.1282910975492754 0  1.85625 0.3075 0  0.61875 0.3075 0  0.61875 0.1025 0  0.3648540804333487 0.1240075933101478 0  0 0.3075 0  0 0.1025 0  2.099172119769978 0.25625 0  0.48125 0.09238439620688085 0  0.5781001037344399 0.2059284232365146 0  0.48125 0.3196743479159776 0  0.7265881057911006 0.3055240343720796 0  1.99375 0.08395950269330846 0  1.459960956013612 0.3075 0  1.569025960719943 0.2986889805672169 0  0.75625 0.08213100772579164 0  1.03125 0.3278689922742084 0  0.923871252904788 0.3078247185783941 0  1.959375 0.3126371951219512 0  1.749222215368287 0.1025 0  1.275777784631713 0.1025 0  2.2 0.1025 0  1.225938124459196 0.3075 0  1.550777784631713 0.1025 0  1.000777784631713 0.1025 0  1.44375 0.07430640243902442 0  1.16875 0.07430640243902437 0  1.899250267340833 0.2229966846119207 0  0.1020898364287272 0.3140258291809757 0  1.766482954545455 0.2934032012195123 0  0.3405058858996321 0.2119987970531874 0  0.7710785630958338 0.1710968191298857 0  1.046078563095834 0.2389031808701144 0  0.2 0.3400647632937836 0  1.421109702350723 0.2261157654379721 0  0.2800464974185557 0.08982544815605742 0  0.098916018031319 0.09171660955420841 0  2.13125 0 0  2.118919042110979 0.3422084711244843 0  1.30625 0.41 0  0.89375 0 0  1.597888256393107 0.2173787389261347 0  0.20625 0 0  1.829299675393195 0.07400700849299596 0  1.71875 0.41 0  1.16875 0.41 0  2.038220665644273 0.332420740103091 0  0.34375 0 0  0.417496017710808 0.2696595573092803 0  0.2 0.07687845740457822 0  0.9295982307099278 0.1343158415898188 0  0.07390688010811153 0.1697064032433452 0  0.5238366813727013 0.2578302467013575 0  0.05452951551825875 0.25625 0  0.5229630068078351 0.1548816096928243 0  1.452769549894695 0.1548122580621249 0  1.369219062229598 0.07430640243902442 0  1.30625 0 0  0.8504409521244898 0.3356935975609756 0  0.8821881244591965 0.205 0  1.720943423819132 0.1714577452753128 0  1.157188124459196 0.205 0  1.094219062229598 0.07430640243902437 0  1.03125 0 0  1.304056576180868 0.1714577452753128 0  1.67579304192913 0.07430640243902437 0  0.2751941921308361 0.3346083473122598 0  1.209670467133757 0.1362100266964769 0  1.025335513626278 0.1700681449722324 0  0.7562500000000001 0.41 0  1.58125 0 0  0.7567170593862014 0.2409196493502535 0  0.6926714215682891 0.1272249611432207 0  0.4139715849905988 0.3397932387114203 0  0.9840787304190477 0.2717749043358119 0  0.06875000000000001 0.41 0  0 0.35875 0  0.9281250000000001 0.06276726142697993 0  0.5507396469029935 0.3219409231578227 0  0.5504468037989405 0.09136885600634273 0  1.58125 0.41 0  1.631724228912893 0.3381867502687533 0  1.825608881788174 0.14499488549201 0  1.85625 0 0  1.44375 0 0  1.44375 0.41 0  1.85625 0.41 0  2.13125 0.41 0  0.7562500000000001 0 0  0.89375 0.41 0  0.4812500000000001 0 0  0.34375 0.41 0  0.4812500000000001 0.41 0  0.20625 0.41 0  0.06875000000000001 0 0  1.16875 0 0  0.61875 0 0  0.61875 0.41 0  1.03125 0.41 0  1.71875 0 0  1.99375 0 0  1.99375 0.41 0  1.340625 0.3489494290853124 0  1.134375 0.3489494290853123 0  1.700180620188976 0.3438659752031281 0  2.135782184673599 0.07126652247502523 0  1.668441847249787 0.2129203728327609 0  1.295782514339747 0.2378437748815763 0  0.8233075729931248 0.06842334294821524 0  1.409375 0.3520314716057996 0  0.403505597322782 0.182067236678212 0  0.378125 0.05794951541303489 0  0.3043468223249023 0.1518321115979534 0  2.129248544730567 0.1906135162504124 0  2.060771381434487 0.1989445750470348 0  2.013252586573865 0.1496169464686054 0  1.942766402200229 0.1734448904596831 0  1.895522487186454 0.06076163953489683 0  2.069553871656643 0.06605731020975725 0  1.274680914880868 0.3520219391081363 0  1.614713220494657 0.09473434380863296 0  0.7899021319497519 0.3149123934144827 0  0.69518737419149 0.0634051089053758 0  0.2971740475496061 0.2592172353407536 0  1.72990325744076 0.2380068107952482 0  1.356580098625191 0.2120393231351682 0  2.034370752044885 0.2668681600792073 0  1.51768709249349 0.3426260931494756 0  1.561883724969884 0.1650446847858835 0  1.197344062229598 0.2523725417393646 0  1.804085235518364 0.3468178408964637 0  1.817887819205233 0.2589243285818559 0  1.905897727272727 0.3485060975609756 0  0.6719798073392919 0.2688965171178177 0  0 0.05125 0  0.653125 0.35875 0  0.6396896119294488 0.1627615407790282 0  0.4274150154087412 0.1242548552168279 0  1.192836486056382 0.3562350748565544 0  0.8279124365364005 0.183856489168822 0  1.097485222388854 0.2083571153401724 0  1.28257088594801 0.2944411014911587 0  1.474860187679412 0.2504218616229368 0  1.406767003493824 0.2829282258560709 0  0.446875 0.04619219810344041 0  0.515625 0.04585361801037557 0  0.592043440706648 0.05125 0  1.845656689180403 0.1998310418452388 0  2.144958525570388 0.2909790873294231 0  0.6171090763650112 0.2492366900333857 0  2.2 0.15375 0  0.5145586920831158 0.3648371739579888 0  1.57794966442982 0.3540357145964566 0  0.721875 0.3633107922168974 0  0.0496154796471391 0.333125 0  0.5843750000000001 0.3662560860076676 0  0.5810878747760798 0.1474002776121195 0  1.508991196088596 0.1421783375065625 0  0.8840670607017558 0.2640994375393898 0  0.09776612425612034 0.2204896805326566 0  1.50436820029908 0.06143401634903343 0  1.223857000523521 0.0823554862453532 0  1.153316824384777 0.1289850171317837 0  2.148922302309752 0.1258841779285271 0  0.309375 0.04312325590431198 0  1.621993280276081 0.2841214267927899 0  1.550118654119087 0.2461998729100966 0  1.327182649291491 0.1216967252533594 0  1.051977450479407 0.1221382572915816 0  1.753125 0.04556020050186112 0  1.271875 0.04556020050186116 0  0.9816084133102366 0.05126138213476004 0  1.039051841454368 0.0572224914831029 0  0.9719230514536006 0.3480477870845102 0  1.94956388244759 0.1180512551534177 0  1.949997712993411 0.04965831614304109 0  1.771961817615021 0.1530278789497521 0  1.909246823951428 0.2812757146784527 0  0.2459536687882397 0.04668633953831142 0  1.948575539857022 0.2445328248721197 0  1.697271520964565 0.1233917627620729 0  0.7964897648514618 0.1211426571931604 0  1.065625 0.3689344961371042 0  1.085849084308977 0.3170853572226867 0  0.4702981435440001 0.260434880697798 0  1.577403511714593 0.05463601888079143 0  0.05622663515370135 0.05493816910862376 0  0.3267207591099919 0.3566194660323104 0  0.9003051618565143 0.3564049499960621 0  1.751571320346033 0.3651102912045228 0  0.1583785085108421 0.2994699345738728 0  0.1455283439499995 0.3542795598723423 0  2.2 0.35875 0  0.2347662494194072 0.298325008655211 0  0.1527284455616188 0.1065771775690181 0  0.1382139529076665 0.05427454456341477 0  0.8749341636311069 0.05110114999892954 0  0.643661668713109 0.05693499781019222 0  1.466879772203159 0.3611261772912453 0  1.990280163552011 0.3564754268533217 0  1.17471064520912 0.2990917256188288 0  0.5202693090594349 0.206382495511728 0  0 0.25625 0  2.2 0.25625 0  2.2 0.05125 0  0 0.15375 0  1.853978576207987 0.35875 0  0.9787513713939683 0.1487523696999336 0  0.240625 0.3722153812029779 0  1.515638456102889 0.2882700110184686 0  0.09048297387599738 0.3637717362208066 0  2.150453692751374 0.2387066338105111 0  1.323782677156475 0.04897634338873398 0  0.8074131292871642 0.3624701995505916 0  1.409375 0.03715320121951221 0  1.406484531114799 0.1087852750766809 0  1.134375 0.03715320121951218 0  1.627401732573545 0.04552157221025036 0  0.1170173172005315 0.1427610859166811 0  2.045405893604797 0.1105340662939892 0  1.255408269734577 0.1577307500159216 0  2.028125 0.03707597992059326 0  0.4743610090857199 0.1421513964721819 0  0.9354010469015898 0.250631300585664 0  0.04420832937638274 0.128125 0  0.8922386349349938 0.0992956419364831 0  0.1197849154434487 0.2663398672460083 0  1.248258025468107 0.2565907092181813 0  0.3746885856929528 0.370723531618974 0  1.203125 0.0366132337404304 0  0.5724622277005015 0.2751253816079333 0  0.3365425205162783 0.08395777655057959 0  2.072662025974815 0.2975086504196739 0  0.4581080832182547 0.3648371739579888 0  0.3874522734668214 0.2295447548840689 0  0.7827853612484443 0.04106550386289586 0  1.887722846421017 0.1760882698830035 0  1.472640588990488 0.1118278026240017 0  1.865937103925594 0.2604137786483804 0  1.463913572748262 0.2030442564990043 0  1.376426316059077 0.3186741374914345 0  0.6641993820150034 0.3141688596240831 0  0.2943117490824315 0.2130987422685822 0  0.3478153998082709 0.1666571081082676 0  0.3427990510599805 0.2575950027870776 0  0.7997118993855807 0.2216171933356366 0  
[...]
<PointData  Scalars="f_10-2"> 
<DataArray  type="Float64"  Name="f_10-2"  format="ascii">1.9527806417988804e-07  2.7391759752437171e-07  3.4334109150397762e-06  3.1875890693222781e-06  2.1286781254507530e-06  2.8079063928912258e-06  2.2107994782461169e-06  1.0083768342613300e-06  4.7908907423268425e-07  3.3679369479470425e-07  2.8944465219943064e-07  3.3003168873140123e-07  4.7165224957789085e-07  9.3064562685568629e-07  2.5110410184266409e-06  2.1131567310271620e-06  2.2011105713039572e-07  1.4461015482842957e-06  1.3035018505989067e-06  1.2471965208970905e-06  1.0818620744567066e-06  2.9417417386254908e-06  3.3008982987683652e-06  1.5798247665817193e-06  1.8838327856049324e-06  3.0056108481799598e-06  2.6015895696977467e-06  3.4338677740977451e-06  3.1297717237248672e-06  4.3073810484395477e-06  4.2051634849839356e-06  3.6729400020068589e-06  4.2283677735868176e-06  4.3466514991145965e-06  3.9826393268349419e-06  3.1867234848623473e-06  4.0813049994738262e-06  3.4496669942148593e-06  3.1754470442549469e-06  3.5391196776874149e-06  1.3599054866977215e-06  1.2561412782323972e-06  3.0526167538620113e-06  4.1334075383677564e-06  3.1779317015030916e-06  3.3842330913933528e-06  2.7914540175333549e-06  3.2675239995067967e-06  1.8365061320727840e-06  2.1983349032260852e-06  1.3923823105554366e-06  1.6173174373220999e-06  7.7076431301751784e-07  5.4199685378105350e-07  2.7870170668616756e-06  4.0217373907311955e-06  2.3768305815612971e-06  4.1250866725836866e-06  3.4702834680525785e-06  3.7707107329477813e-06  3.3503088072658978e-06  3.6616372430858027e-06  1.4333525070116551e-06  3.9531001121247475e-06  3.8903062562778129e-06  3.5462173015692688e-06  1.7150913944759195e-06  1.9569619550842173e-06  2.0774393182169123e-06  1.9519102804763331e-07  2.3329761127068454e-07  3.8662871421469762e-06  1.6569327991136873e-06  3.3728202742224111e-06  1.4874660343005639e-06  2.1100174563486789e-06  3.6884284670571410e-06  3.3677066397941125e-06  3.5367091400504248e-06  2.2076261302915805e-06  2.4980323261082383e-06  2.6051206486143108e-06  3.5219285502339070e-06  3.7930495262625982e-06  3.5525181381749024e-06  3.7341145271598383e-06  3.1308432857194820e-06  3.7399219039829376e-06  3.1607969121858933e-06  3.4023489134515011e-06  3.0472032383227466e-06  4.1057928346684130e-06  5.2310832860397414e-07  3.6523700966350116e-06  3.1939677609924158e-06  3.7679307994314290e-06  4.0206158339489448e-06  1.0669970092511310e-06  4.2441724337994782e-06  1.1601740836598184e-06  5.5419981431625763e-07  3.4409810094654393e-06  3.3546936093632923e-06  2.4948481865124714e-06  2.0369391768581068e-06  4.2458540236515497e-06  1.0891601173561843e-06  3.6208407596769990e-06  3.0032601850299053e-06  2.2485505928788969e-06  3.4022640786323164e-06  1.3174517132649741e-06  1.9842085220104115e-06  1.0823338052956311e-06  3.5898437705090211e-06  2.2958103532424044e-07  2.1636397467161150e-06  2.1377678007201831e-07  2.5882427247294966e-06  4.1869101494310415e-06  3.3262185189810120e-06  2.8976920622168582e-06  2.0086402844500800e-06  4.1455652522569546e-06  4.2080843280376611e-06  4.3367817382640813e-06  2.9167970439593060e-06  2.3616699101685885e-06  4.2922743564406622e-06  3.5665298902909603e-06  1.2123419020762454e-06  3.9407240195610503e-06  4.1900704907622376e-06  1.4720195018734002e-06  3.2468898553198679e-06  3.4504574087866542e-06  2.6799695900311329e-06  1.3555588599534818e-06  3.4095891887116823e-06  2.6369300404240717e-07  1.8944584558855937e-07  2.4146358085850952e-06  1.5136538815928764e-06  1.7052285403336039e-06  2.8711690679806577e-06  3.1907114474241195e-06  4.0632134876968775e-06  3.4133389763045667e-06  3.0939755316023588e-06  2.7029169674150794e-06  3.0987242521233051e-06  3.1845632038628932e-06  1.7391578099522556e-06  1.6983072162756705e-06  1.3968684770474038e-06  1.1984307148625788e-06  1.2822936596085741e-06  8.6394795328319889e-07  3.9130958248612745e-07  2.6580786820302623e-06  1.5183273852283828e-06  1.3372814328700162e-06  1.9714058073488377e-06  3.3463118319855066e-06  3.4430273354248764e-06  3.1593382996907212e-06  2.7754600257576634e-06  2.4400206601958521e-06  3.1962974301692863e-06  3.6112635955372165e-06  4.2350491163627927e-06  4.1468635648609679e-06  2.2162366141898503e-06  2.8501733191434020e-06  3.2856110016927666e-06  1.3571193628525006e-06  2.5805155651932791e-06  4.0288607935328507e-06  4.0690020563844871e-06  4.0123092403079771e-06  4.1156112818177999e-06  3.5669058649194185e-06  3.5985044196201535e-06  2.6545564250752400e-06  3.6971648700047118e-06  2.1525559513872049e-06  1.8405269781651401e-06  2.0336149323352021e-06  4.1002744804060033e-06  4.3217028680123678e-06  3.8298367801130994e-06  3.0500831038166537e-06  4.2318140532303065e-06  3.9461912350818387e-06  3.2407854411405630e-06  3.9396131278315757e-06  3.2797528594486019e-06  2.4942505562841573e-06  2.5232023848259198e-07  1.4500765421320960e-06  3.0653973994010725e-06  2.1192894819131952e-06  2.4787167513634284e-06  4.0324463064031154e-06  4.3199872212752419e-06  3.3922326569949115e-06  4.0434474932882592e-06  3.6468038296886575e-06  1.4046272523829718e-06  1.4623564630476593e-06  1.5582952228754678e-06  4.1826548775818772e-06  3.6489247985215773e-06  2.6681902386416140e-06  3.9346305026492985e-06  1.3354768600875452e-06  3.0255404293870903e-06  1.5247001344480680e-06  2.1334808736034665e-07  1.3666892248349971e-06  2.5039093301195460e-06  4.0909059789072946e-06  3.3616479272815047e-06  2.3530998423211628e-07  3.3598402870466818e-06  3.2307574178414612e-06  3.8004615232592935e-06  3.8557843735687627e-06  1.2719008221086460e-06  3.7144891151756240e-06  4.0801177855640720e-06  3.8333828841548577e-06  3.5811897449534090e-06  3.4475662879160238e-06  2.9586896337101966e-06  2.4203257062781586e-06  2.6099285395293194e-06  2.1256537272319932e-06  3.8828699773189752e-06  3.5273011837488646e-06  4.1198787758024069e-06  3.7571291844049457e-06  1.1947831446940421e-06  3.9895197034936522e-06  3.9454443901619635e-06  3.0018536104851407e-06  2.1443524570888944e-06  2.7696254950203982e-06  2.0764891546083367e-06  3.3814686662579713e-06  3.0949332621102608e-07  1.2308555400267284e-06  1.8925758523606619e-06  3.1114755524169380e-06  8.7464181390231796e-07  7.2409110106969810e-07  3.2832415605609096e-06  1.0001215304394108e-06  8.0281843623009187e-07  8.3997839150862949e-07  2.1631239959332524e-06  1.6716753165958646e-06  2.8580861299625409e-06  3.2681352719003704e-06  3.1966890236473910e-06  3.2744095257290752e-06  2.1005708294976962e-07  3.8243385288283482e-06  3.5228834147590961e-06  2.2730547599312168e-07  3.2052598698932128e-06  3.8972610318663382e-06  1.0392072061427204e-06  3.6320304782439882e-06  3.3773275696015598e-07  3.9200351515540458e-06  3.0592400728679779e-06  1.6701163277371907e-06  3.1196729779749731e-06  3.7307089488709663e-06  2.6595340192357843e-06  3.3730479338289258e-06  4.1096538414606476e-07  3.8204197242589361e-06  4.1910389197439207e-06  3.4966192444997626e-06  2.4046673093135974e-06  3.7086927897758078e-06  2.3940344168868292e-07  2.8647834110204094e-06  4.7392740186208012e-07  3.9148507745588723e-06  1.2499557819993027e-06  2.7952092691198543e-06  1.9811009559143252e-06  1.3419728159078226e-06  3.6232231277652299e-06  1.3134055192769169e-06  2.8354346852912581e-06  1.8831859368568850e-06  4.1502806134151416e-06  3.7962470533611139e-06  3.9175480890255690e-06  4.3273898058327041e-06  3.1502081807573075e-06  1.7751969638888512e-06  3.0614154976434933e-06  3.1359690672686046e-06  2.2935830756415225e-06  3.8630209019261107e-06  3.7439932219877297e-06  4.0273105079341804e-06  3.4950492715504597e-06  3.5574313011178472e-06  2.8652720721060136e-06  4.0979203355937175e-06  3.2942144760209278e-06  3.8628500616634825e-06  4.3481722277149520e-06  1.4906128541403197e-06  3.1680573767153267e-06  4.0779057831877007e-06  3.5138222178260699e-06  3.2022738490868117e-06  3.5754337840656483e-06  2.1929725181800713e-07  3.8877026335525888e-06  3.4052920795240271e-06  3.1813877521705439e-06  3.2590814523044545e-06  5.1816674169043119e-07  1.7825031328086408e-06  2.9077393160618123e-06  3.8706711067584740e-06  3.6018224180623245e-06  9.5211365604267823e-07  4.0710991588426991e-06  4.3323606970237282e-06  3.1369948337212604e-06  4.2788358758789604e-06  2.8339292995864621e-06  1.6351409055002622e-06  3.3243455522818775e-06  3.4181546725231073e-06  1.9055267271545059e-06  2.0369801817782070e-06  3.4794677935760123e-06  3.2293437646824770e-06  2.0859527815312606e-07  2.0453132655503447e-06  1.5708871886434037e-06  4.1612850124565666e-06  3.9188386676580000e-06  4.1027146843543740e-06  3.4617785215359681e-06  3.7471556720771067e-06  3.2126533330914442e-06  3.2044646402021445e-06  2.9889336821009971e-06  8.4648450646921515e-07  3.0750573642726958e-06  2.5308666482386544e-06  3.3836015242969847e-06  3.0313771244277774e-06  2.8382446684652015e-06  1.5045694311149281e-06  7.1458596193606999e-07  4.0039477857734401e-06  1.7698390424612274e-06  4.2945830049348949e-06  2.4716018350820319e-06  4.0278365270063035e-06  3.2000376988770616e-06  1.0438617264955076e-06  4.2670838654933488e-06  3.1316314020810771e-06  3.9714093853634943e-06  2.9081916812696688e-06  1.5368259312652575e-06  1.5570879377052679e-06  3.8464791822458221e-06  3.2392412108445008e-06  3.8097239471259524e-06  4.1058349979190057e-06  4.2376960133416905e-06  2.4884353081097586e-07  3.9798999387209811e-06  3.1834034500388656e-06  3.5150745383350466e-06  2.7023728861190940e-06  3.1151845987329762e-06  3.4805340691072790e-06  3.4254898900767971e-06  3.6869700008934932e-06  3.7033407941978992e-06  3.6724703160689712e-06  3.3666596726330069e-06  3.8198664126460924e-06  2.9763430387026504e-07  2.3140647913385937e-06  1.2672131342753439e-06  1.9887436004066837e-07  3.2251918380598796e-06  4.1259212987492622e-06  3.3317679174989189e-06  2.6699504861035041e-06  2.6894806847721218e-07  1.4825674280407082e-06  9.7755571801215265e-07  3.6248988640521903e-06  2.2684419398180745e-06  1.8746380869068698e-06  1.5863963970877839e-06  4.2908088974373460e-06  2.2522384646086814e-07  3.7596380526588912e-06  2.6402796339149363e-06  3.6395566508531836e-06  3.7901830396211921e-06  1.1245862201391912e-06  8.1308142736746075e-07  4.0436771067361840e-06  1.1492683258417192e-06  3.2112156097286453e-06  3.1408513008737096e-06  1.9915499897985664e-06  3.0372852149493605e-06  1.8007983188368281e-06  1.7497147248933290e-06  2.8876357536036419e-06  1.7236118328408003e-06  2.0174873209535153e-07  3.2431021784373532e-06  4.2274303485235832e-06  4.3538526119041264e-06  4.0308931122947389e-06  3.9817542327394256e-06  3.7402694540929000e-06  3.0495940049231887e-06  3.4681521289554820e-06  4.1723086918657288e-06  4.1994135461287717e-06  4.0292321380251584e-06  3.2415430857487238e-07  1.3124056369304227e-06  3.4651837527966495e-06  3.7830989213680765e-06  3.1322612390180821e-07  1.1655529669422083e-06  3.3737443867103001e-06  3.3771021393766845e-06  2.0891843596627588e-06  7.3819372195446676e-07  1.3865209145318724e-06  2.4492159751120066e-07  2.6578324450608628e-06  2.9736796465771455e-06  4.2758133662024343e-06  2.8610035709253698e-06  2.5093800827038797e-06  3.3994521226560677e-06  1.7727509211290035e-06  3.9673595455144374e-06  4.0158049796704504e-06  3.3852508478755637e-06  2.8293303286461981e-06  3.6551822888362564e-06  3.9856902427017606e-06  3.9992995923834774e-06  3.3443354250786080e-06  3.4324216727078953e-06  4.2869334225768513e-06  3.7576234211298865e-06  4.2484234714412499e-06  1.6360462818603313e-06  3.3572429744506326e-06  2.3407110434079787e-06  2.2317623433826076e-06  2.1317019382712194e-06  1.9585962225107319e-06  1.9833412472460202e-06  3.7004629670769280e-06  3.7659279536095451e-06  2.3691953136562768e-06  4.1142725880751240e-06  3.2264740481695974e-06  2.7096898292430984e-06  4.2963221260320550e-06  4.1428556417353467e-06  3.9681264925342984e-06  4.1802483706658426e-06  2.7457523524597165e-06  1.3074637458674675e-06  1.2785731029990027e-06  2.9417185677709205e-06  3.2336977281039554e-06  2.8503098547329664e-06  3.6691087950207307e-06  2.3019843988355710e-06  2.1824911774169180e-06  2.5750897048405125e-06  2.5441095333831499e-06  2.6856108207953309e-06  2.9260883978477550e-06  4.3327542791054193e-06  3.9538555650884963e-06  2.3109970009091977e-06  1.5243841704950509e-06  1.3691165128990807e-06  3.3009809663088583e-06  2.6748805053525664e-06  1.3665720863677247e-06  1.3399646297935708e-06  1.4536876275781784e-06  1.7167022339973292e-06  1.5096706630345343e-06  1.4784248390155809e-06  4.1374364090103251e-06  2.8490685433172091e-06  3.9370709555506643e-06  1.6075344335023447e-06  2.1132680343457830e-06  1.9291513214479339e-06  3.2021159384244010e-06  2.9708280879062506e-06  4.0990959168895348e-06  4.0834848449877552e-06  3.7765502676930717e-06  2.4338692500007943e-06  2.1951595087939835e-06  2.7161843682328426e-06  1.4150485518799148e-06  2.9545057663768553e-06  2.4399260821040157e-06  3.4355852355823281e-06  3.4440310776793441e-06  2.5871087230299102e-06  3.0544656234124865e-06  2.7488320537034845e-06  3.0294538660793743e-06  2.0430563194408574e-06  3.3696782424131735e-06  1.4307540568608996e-06  2.6513091448396841e-06  1.6767611944316908e-06  3.1881419017549129e-06  2.1212958688967099e-06  1.2326457084672448e-06  1.3777337905060998e-06  1.2710967776113975e-06  5.6366757964029383e-07  9.8866431172876193e-07  1.1839330148228537e-06  3.7714156774357393e-07  1.5628671688473985e-06  1.8092361631512743e-06  1.2887818185400324e-06  1.3163309710321968e-06  1.2913776282367484e-06  1.4784335674218578e-06  1.4183466712332066e-06  1.3577137766973907e-06  2.2850702641379140e-06  2.7212267257566547e-06  3.2743227071380774e-06  3.4386264410822728e-06  2.8441653219569504e-06  3.4470732683116988e-06  3.1435929855875090e-06  3.0527914821625978e-06  3.8508359482045144e-06  2.2069210929261465e-06  3.8912779400437572e-06  4.1750661054616163e-06  1.5513693941630609e-06  4.0983294816645227e-06  3.7286182445025632e-06  2.6907900212815278e-06  3.3400383209170460e-06  3.2901310827483248e-06  3.4604443425489320e-06  5.2751597191869601e-07  3.0164643323352548e-06  2.7151069063919873e-06  3.9788236028956456e-06  3.5015742008963401e-06  4.2369424997375202e-06  1.1052815075210533e-06  3.2166060684427228e-06  3.8460967829309780e-06  4.0585022366130132e-06  4.3406959235669695e-06  3.5341636520320359e-06  2.8072564082726045e-06  2.2744292294919184e-06  3.3093255146097323e-06  1.9161612685923353e-06  2.1559588438352347e-07  1.1363802157665434e-06  3.2930862822105172e-06  1.3716626456720601e-06  3.4887068291709662e-06  3.7308986382724741e-06  3.0528752517485672e-06  1.4257101995031717e-06  4.3223978728974367e-06  2.8133642767934516e-07  2.7783560952476581e-06  4.1412446959997550e-06  4.0786829526744733e-06  4.7249469719502463e-07  3.4192296146706488e-06  1.0264952658534222e-06  2.0337369789710079e-06  2.4802654810456155e-06  3.8543712221562936e-06  3.6137532222587859e-06  3.0999928260469985e-06  4.2889729113238161e-06  3.3521014244850116e-06  3.5262974954258936e-06  4.0813467193743013e-06  3.6708418075599322e-06  3.7803942877877474e-06  1.6784407676892941e-06  4.1466924451169948e-06  4.0046197257404076e-06  2.8796498236698052e-06  2.1861897324232814e-06  3.6266571798021611e-06  3.5654935743223805e-06  4.8819200676959079e-07  3.1522617574697877e-06  2.7828142933595294e-06  2.8846101060791424e-06  2.4613718725793802e-06  1.5567863441224707e-06  8.8881425341942223e-07  2.4379463589383653e-06  2.9251873285974006e-06  3.6970457945522251e-06  4.2948558378896412e-06  1.2280460694582614e-06  3.4980953106608561e-06  3.4126971335807038e-06  1.6772152424788297e-06  3.3361884560426900e-06  3.1326212210941326e-06  1.9524380607228454e-06  3.3483173973728246e-06  4.3006735031865314e-06  3.4762073624625550e-06  3.2561165568610267e-06  4.1290025294444330e-06  2.9063913542379671e-06  2.8980814791057810e-06  3.0513535499138110e-07  3.9097436263379082e-06  1.5513447665897785e-06  4.2328263703131363e-06  3.6340399437930651e-06  4.1577606648567661e-06  4.2492325113969076e-06  3.4038413196358401e-06  3.7899019388480214e-06  3.7409751945530183e-06  4.0447452411766535e-06  3.1946561521978269e-06  3.1765443527130950e-06  2.6665812753639506e-07  2.7678035188439634e-07  4.0895495593768774e-06  3.7319991962117562e-06  2.9682275686444242e-06  4.0754954851904180e-07  1.4017096585274872e-06  3.0732465303683396e-06  1.1379288634583449e-06  9.5677746205582103e-07  1.6926440890553291e-06  3.8827924269036856e-06  2.3509725939784353e-06  2.5956773167700943e-06  1.2516746167093152e-06  3.1958089373850994e-06  3.1076890895935732e-06  1.7600396526083881e-06  2.1380300391570981e-07  1.6315755432586215e-06  1.3290339539251386e-06  3.5987582726158522e-06  2.1951916995151754e-06  3.4772572223971405e-06  4.1221188961033717e-06  3.9698008708113454e-06  3.7096864376245835e-06  3.9272346137071806e-06  3.3854991289547305e-06  1.6636843171301822e-06  4.2984622810153790e-06  4.3390547138630055e-06  3.8712833857625692e-06  3.8661009141423403e-06  3.5629061234616779e-06  3.5713264477441162e-06  3.7901599979427470e-06  3.8092330990262358e-06  2.6906357268292600e-06  5.6517811150672085e-07  7.9024146828431957e-07  3.9557426504152516e-06  2.8525360397905746e-06  4.2881599116688077e-06  4.2075277317470541e-06  3.7100718821979962e-06  4.2188581470935373e-06  3.1298630954964582e-06  3.3519898135502454e-06  1.8835517660585927e-06  1.9552611276888816e-06  2.2608694020391668e-06  3.9327478743443141e-06  4.0896175668603036e-06  3.7204199488089058e-06  3.9845027642232271e-06  1.7939845523038262e-06  2.6510526934585410e-06  4.1639752735441651e-06  3.1515657400789522e-06  2.6691903553003270e-06  2.0186147333398830e-06  1.7262403201955530e-06  3.8452808944348275e-06  1.0411130522569695e-06  3.4530318339771969e-06  3.8369599734197754e-06  1.7258186439064756e-06  2.4881685532487125e-06  1.4709696840544499e-06  3.5241416685068876e-06  3.2898977805719789e-06  2.6737865691097480e-06  1.6898014762572045e-06  3.1950650425030276e-06  3.1891175472979611e-06  2.4234682217338782e-06  3.7846539703800379e-06  1.5326978139845438e-06  4.1294873524541044e-06  3.4627599660847287e-06  1.4989013066334352e-06  3.2349912499081094e-06  2.6783779971224058e-06  1.4904184703202310e-06  7.4712243957553548e-07  3.0587568933690328e-06  3.4813151550910688e-06  3.8173631619488935e-06  3.5632787400710282e-06  1.3077336963831099e-06  4.0796922513636618e-06  3.4346621356337101e-06  4.0254179503754530e-06  2.9323850641618101e-06  3.3766341039884546e-06  3.4011112065869088e-06  3.8608000859544890e-06  3.7789126984426955e-06  3.8738232295673142e-06  3.4214909172381176e-06  1.2350589367118378e-06  4.3561967795802821e-06  2.6616465438769036e-06  2.7974810418515748e-06  2.4136977265558127e-06  2.7072451758031251e-06  1.3040601423800666e-06  1.3622909341075061e-06  3.1942045751454690e-06  4.6778749908270881e-07  1.1447109322208326e-06  3.6932124967797862e-07  6.2718320992743043e-07  1.2284826406656685e-06  2.8598146710465869e-06  1.1810993549435045e-06  3.4741233437289599e-06  3.9840261421639691e-06  2.2187676364454097e-07  2.1843778607454293e-07  3.2516156479555989e-06  3.0570417267103880e-06  6.6697029104805974e-07  3.8564145974731005e-06  2.0382270930729780e-07  2.5101399419173412e-06  1.9012730663940663e-07  3.2380879238727490e-07  6.4231990442166091e-07  7.9727496510612465e-07  4.0240241701712728e-06  3.9885867047087602e-06  1.6589717143612267e-06  4.2152727634021658e-06  3.8437523671751436e-06  4.1669712221080247e-06  3.0831429554147783e-06  3.1032310429360514e-06  4.2138402299854351e-06  4.2000557264353406e-06  1.3223830614602617e-06  3.1541410419449763e-06  3.5524886412973446e-06  3.4585581939123126e-06  1.3592229050109754e-06  2.7964158745751593e-06  3.1815496886979935e-06  3.9598639746034093e-06  3.9785459940099279e-06  2.3170644256830197e-06  3.4693841685193658e-06  3.8908709785230164e-06  1.4406869083806479e-06  4.0700306771903776e-06  1.2977342347216716e-06  3.0877093950816891e-06  3.3203988609452304e-06  1.8416742503745879e-06  4.1584130870083556e-06  3.5907694690010